# vtk DataFile Version 2.0
generated by CFD-lab course output (written by Tobias Neckel) 
ASCII

DATASET STRUCTURED_GRID
DIMENSIONS  26 26 1 
POINTS 676 float

0.500000 0.500000 0
0.520000 0.500000 0
0.540000 0.500000 0
0.560000 0.500000 0
0.580000 0.500000 0
0.600000 0.500000 0
0.620000 0.500000 0
0.640000 0.500000 0
0.660000 0.500000 0
0.680000 0.500000 0
0.700000 0.500000 0
0.720000 0.500000 0
0.740000 0.500000 0
0.760000 0.500000 0
0.780000 0.500000 0
0.800000 0.500000 0
0.820000 0.500000 0
0.840000 0.500000 0
0.860000 0.500000 0
0.880000 0.500000 0
0.900000 0.500000 0
0.920000 0.500000 0
0.940000 0.500000 0
0.960000 0.500000 0
0.980000 0.500000 0
1.000000 0.500000 0
0.500000 0.520000 0
0.520000 0.520000 0
0.540000 0.520000 0
0.560000 0.520000 0
0.580000 0.520000 0
0.600000 0.520000 0
0.620000 0.520000 0
0.640000 0.520000 0
0.660000 0.520000 0
0.680000 0.520000 0
0.700000 0.520000 0
0.720000 0.520000 0
0.740000 0.520000 0
0.760000 0.520000 0
0.780000 0.520000 0
0.800000 0.520000 0
0.820000 0.520000 0
0.840000 0.520000 0
0.860000 0.520000 0
0.880000 0.520000 0
0.900000 0.520000 0
0.920000 0.520000 0
0.940000 0.520000 0
0.960000 0.520000 0
0.980000 0.520000 0
1.000000 0.520000 0
0.500000 0.540000 0
0.520000 0.540000 0
0.540000 0.540000 0
0.560000 0.540000 0
0.580000 0.540000 0
0.600000 0.540000 0
0.620000 0.540000 0
0.640000 0.540000 0
0.660000 0.540000 0
0.680000 0.540000 0
0.700000 0.540000 0
0.720000 0.540000 0
0.740000 0.540000 0
0.760000 0.540000 0
0.780000 0.540000 0
0.800000 0.540000 0
0.820000 0.540000 0
0.840000 0.540000 0
0.860000 0.540000 0
0.880000 0.540000 0
0.900000 0.540000 0
0.920000 0.540000 0
0.940000 0.540000 0
0.960000 0.540000 0
0.980000 0.540000 0
1.000000 0.540000 0
0.500000 0.560000 0
0.520000 0.560000 0
0.540000 0.560000 0
0.560000 0.560000 0
0.580000 0.560000 0
0.600000 0.560000 0
0.620000 0.560000 0
0.640000 0.560000 0
0.660000 0.560000 0
0.680000 0.560000 0
0.700000 0.560000 0
0.720000 0.560000 0
0.740000 0.560000 0
0.760000 0.560000 0
0.780000 0.560000 0
0.800000 0.560000 0
0.820000 0.560000 0
0.840000 0.560000 0
0.860000 0.560000 0
0.880000 0.560000 0
0.900000 0.560000 0
0.920000 0.560000 0
0.940000 0.560000 0
0.960000 0.560000 0
0.980000 0.560000 0
1.000000 0.560000 0
0.500000 0.580000 0
0.520000 0.580000 0
0.540000 0.580000 0
0.560000 0.580000 0
0.580000 0.580000 0
0.600000 0.580000 0
0.620000 0.580000 0
0.640000 0.580000 0
0.660000 0.580000 0
0.680000 0.580000 0
0.700000 0.580000 0
0.720000 0.580000 0
0.740000 0.580000 0
0.760000 0.580000 0
0.780000 0.580000 0
0.800000 0.580000 0
0.820000 0.580000 0
0.840000 0.580000 0
0.860000 0.580000 0
0.880000 0.580000 0
0.900000 0.580000 0
0.920000 0.580000 0
0.940000 0.580000 0
0.960000 0.580000 0
0.980000 0.580000 0
1.000000 0.580000 0
0.500000 0.600000 0
0.520000 0.600000 0
0.540000 0.600000 0
0.560000 0.600000 0
0.580000 0.600000 0
0.600000 0.600000 0
0.620000 0.600000 0
0.640000 0.600000 0
0.660000 0.600000 0
0.680000 0.600000 0
0.700000 0.600000 0
0.720000 0.600000 0
0.740000 0.600000 0
0.760000 0.600000 0
0.780000 0.600000 0
0.800000 0.600000 0
0.820000 0.600000 0
0.840000 0.600000 0
0.860000 0.600000 0
0.880000 0.600000 0
0.900000 0.600000 0
0.920000 0.600000 0
0.940000 0.600000 0
0.960000 0.600000 0
0.980000 0.600000 0
1.000000 0.600000 0
0.500000 0.620000 0
0.520000 0.620000 0
0.540000 0.620000 0
0.560000 0.620000 0
0.580000 0.620000 0
0.600000 0.620000 0
0.620000 0.620000 0
0.640000 0.620000 0
0.660000 0.620000 0
0.680000 0.620000 0
0.700000 0.620000 0
0.720000 0.620000 0
0.740000 0.620000 0
0.760000 0.620000 0
0.780000 0.620000 0
0.800000 0.620000 0
0.820000 0.620000 0
0.840000 0.620000 0
0.860000 0.620000 0
0.880000 0.620000 0
0.900000 0.620000 0
0.920000 0.620000 0
0.940000 0.620000 0
0.960000 0.620000 0
0.980000 0.620000 0
1.000000 0.620000 0
0.500000 0.640000 0
0.520000 0.640000 0
0.540000 0.640000 0
0.560000 0.640000 0
0.580000 0.640000 0
0.600000 0.640000 0
0.620000 0.640000 0
0.640000 0.640000 0
0.660000 0.640000 0
0.680000 0.640000 0
0.700000 0.640000 0
0.720000 0.640000 0
0.740000 0.640000 0
0.760000 0.640000 0
0.780000 0.640000 0
0.800000 0.640000 0
0.820000 0.640000 0
0.840000 0.640000 0
0.860000 0.640000 0
0.880000 0.640000 0
0.900000 0.640000 0
0.920000 0.640000 0
0.940000 0.640000 0
0.960000 0.640000 0
0.980000 0.640000 0
1.000000 0.640000 0
0.500000 0.660000 0
0.520000 0.660000 0
0.540000 0.660000 0
0.560000 0.660000 0
0.580000 0.660000 0
0.600000 0.660000 0
0.620000 0.660000 0
0.640000 0.660000 0
0.660000 0.660000 0
0.680000 0.660000 0
0.700000 0.660000 0
0.720000 0.660000 0
0.740000 0.660000 0
0.760000 0.660000 0
0.780000 0.660000 0
0.800000 0.660000 0
0.820000 0.660000 0
0.840000 0.660000 0
0.860000 0.660000 0
0.880000 0.660000 0
0.900000 0.660000 0
0.920000 0.660000 0
0.940000 0.660000 0
0.960000 0.660000 0
0.980000 0.660000 0
1.000000 0.660000 0
0.500000 0.680000 0
0.520000 0.680000 0
0.540000 0.680000 0
0.560000 0.680000 0
0.580000 0.680000 0
0.600000 0.680000 0
0.620000 0.680000 0
0.640000 0.680000 0
0.660000 0.680000 0
0.680000 0.680000 0
0.700000 0.680000 0
0.720000 0.680000 0
0.740000 0.680000 0
0.760000 0.680000 0
0.780000 0.680000 0
0.800000 0.680000 0
0.820000 0.680000 0
0.840000 0.680000 0
0.860000 0.680000 0
0.880000 0.680000 0
0.900000 0.680000 0
0.920000 0.680000 0
0.940000 0.680000 0
0.960000 0.680000 0
0.980000 0.680000 0
1.000000 0.680000 0
0.500000 0.700000 0
0.520000 0.700000 0
0.540000 0.700000 0
0.560000 0.700000 0
0.580000 0.700000 0
0.600000 0.700000 0
0.620000 0.700000 0
0.640000 0.700000 0
0.660000 0.700000 0
0.680000 0.700000 0
0.700000 0.700000 0
0.720000 0.700000 0
0.740000 0.700000 0
0.760000 0.700000 0
0.780000 0.700000 0
0.800000 0.700000 0
0.820000 0.700000 0
0.840000 0.700000 0
0.860000 0.700000 0
0.880000 0.700000 0
0.900000 0.700000 0
0.920000 0.700000 0
0.940000 0.700000 0
0.960000 0.700000 0
0.980000 0.700000 0
1.000000 0.700000 0
0.500000 0.720000 0
0.520000 0.720000 0
0.540000 0.720000 0
0.560000 0.720000 0
0.580000 0.720000 0
0.600000 0.720000 0
0.620000 0.720000 0
0.640000 0.720000 0
0.660000 0.720000 0
0.680000 0.720000 0
0.700000 0.720000 0
0.720000 0.720000 0
0.740000 0.720000 0
0.760000 0.720000 0
0.780000 0.720000 0
0.800000 0.720000 0
0.820000 0.720000 0
0.840000 0.720000 0
0.860000 0.720000 0
0.880000 0.720000 0
0.900000 0.720000 0
0.920000 0.720000 0
0.940000 0.720000 0
0.960000 0.720000 0
0.980000 0.720000 0
1.000000 0.720000 0
0.500000 0.740000 0
0.520000 0.740000 0
0.540000 0.740000 0
0.560000 0.740000 0
0.580000 0.740000 0
0.600000 0.740000 0
0.620000 0.740000 0
0.640000 0.740000 0
0.660000 0.740000 0
0.680000 0.740000 0
0.700000 0.740000 0
0.720000 0.740000 0
0.740000 0.740000 0
0.760000 0.740000 0
0.780000 0.740000 0
0.800000 0.740000 0
0.820000 0.740000 0
0.840000 0.740000 0
0.860000 0.740000 0
0.880000 0.740000 0
0.900000 0.740000 0
0.920000 0.740000 0
0.940000 0.740000 0
0.960000 0.740000 0
0.980000 0.740000 0
1.000000 0.740000 0
0.500000 0.760000 0
0.520000 0.760000 0
0.540000 0.760000 0
0.560000 0.760000 0
0.580000 0.760000 0
0.600000 0.760000 0
0.620000 0.760000 0
0.640000 0.760000 0
0.660000 0.760000 0
0.680000 0.760000 0
0.700000 0.760000 0
0.720000 0.760000 0
0.740000 0.760000 0
0.760000 0.760000 0
0.780000 0.760000 0
0.800000 0.760000 0
0.820000 0.760000 0
0.840000 0.760000 0
0.860000 0.760000 0
0.880000 0.760000 0
0.900000 0.760000 0
0.920000 0.760000 0
0.940000 0.760000 0
0.960000 0.760000 0
0.980000 0.760000 0
1.000000 0.760000 0
0.500000 0.780000 0
0.520000 0.780000 0
0.540000 0.780000 0
0.560000 0.780000 0
0.580000 0.780000 0
0.600000 0.780000 0
0.620000 0.780000 0
0.640000 0.780000 0
0.660000 0.780000 0
0.680000 0.780000 0
0.700000 0.780000 0
0.720000 0.780000 0
0.740000 0.780000 0
0.760000 0.780000 0
0.780000 0.780000 0
0.800000 0.780000 0
0.820000 0.780000 0
0.840000 0.780000 0
0.860000 0.780000 0
0.880000 0.780000 0
0.900000 0.780000 0
0.920000 0.780000 0
0.940000 0.780000 0
0.960000 0.780000 0
0.980000 0.780000 0
1.000000 0.780000 0
0.500000 0.800000 0
0.520000 0.800000 0
0.540000 0.800000 0
0.560000 0.800000 0
0.580000 0.800000 0
0.600000 0.800000 0
0.620000 0.800000 0
0.640000 0.800000 0
0.660000 0.800000 0
0.680000 0.800000 0
0.700000 0.800000 0
0.720000 0.800000 0
0.740000 0.800000 0
0.760000 0.800000 0
0.780000 0.800000 0
0.800000 0.800000 0
0.820000 0.800000 0
0.840000 0.800000 0
0.860000 0.800000 0
0.880000 0.800000 0
0.900000 0.800000 0
0.920000 0.800000 0
0.940000 0.800000 0
0.960000 0.800000 0
0.980000 0.800000 0
1.000000 0.800000 0
0.500000 0.820000 0
0.520000 0.820000 0
0.540000 0.820000 0
0.560000 0.820000 0
0.580000 0.820000 0
0.600000 0.820000 0
0.620000 0.820000 0
0.640000 0.820000 0
0.660000 0.820000 0
0.680000 0.820000 0
0.700000 0.820000 0
0.720000 0.820000 0
0.740000 0.820000 0
0.760000 0.820000 0
0.780000 0.820000 0
0.800000 0.820000 0
0.820000 0.820000 0
0.840000 0.820000 0
0.860000 0.820000 0
0.880000 0.820000 0
0.900000 0.820000 0
0.920000 0.820000 0
0.940000 0.820000 0
0.960000 0.820000 0
0.980000 0.820000 0
1.000000 0.820000 0
0.500000 0.840000 0
0.520000 0.840000 0
0.540000 0.840000 0
0.560000 0.840000 0
0.580000 0.840000 0
0.600000 0.840000 0
0.620000 0.840000 0
0.640000 0.840000 0
0.660000 0.840000 0
0.680000 0.840000 0
0.700000 0.840000 0
0.720000 0.840000 0
0.740000 0.840000 0
0.760000 0.840000 0
0.780000 0.840000 0
0.800000 0.840000 0
0.820000 0.840000 0
0.840000 0.840000 0
0.860000 0.840000 0
0.880000 0.840000 0
0.900000 0.840000 0
0.920000 0.840000 0
0.940000 0.840000 0
0.960000 0.840000 0
0.980000 0.840000 0
1.000000 0.840000 0
0.500000 0.860000 0
0.520000 0.860000 0
0.540000 0.860000 0
0.560000 0.860000 0
0.580000 0.860000 0
0.600000 0.860000 0
0.620000 0.860000 0
0.640000 0.860000 0
0.660000 0.860000 0
0.680000 0.860000 0
0.700000 0.860000 0
0.720000 0.860000 0
0.740000 0.860000 0
0.760000 0.860000 0
0.780000 0.860000 0
0.800000 0.860000 0
0.820000 0.860000 0
0.840000 0.860000 0
0.860000 0.860000 0
0.880000 0.860000 0
0.900000 0.860000 0
0.920000 0.860000 0
0.940000 0.860000 0
0.960000 0.860000 0
0.980000 0.860000 0
1.000000 0.860000 0
0.500000 0.880000 0
0.520000 0.880000 0
0.540000 0.880000 0
0.560000 0.880000 0
0.580000 0.880000 0
0.600000 0.880000 0
0.620000 0.880000 0
0.640000 0.880000 0
0.660000 0.880000 0
0.680000 0.880000 0
0.700000 0.880000 0
0.720000 0.880000 0
0.740000 0.880000 0
0.760000 0.880000 0
0.780000 0.880000 0
0.800000 0.880000 0
0.820000 0.880000 0
0.840000 0.880000 0
0.860000 0.880000 0
0.880000 0.880000 0
0.900000 0.880000 0
0.920000 0.880000 0
0.940000 0.880000 0
0.960000 0.880000 0
0.980000 0.880000 0
1.000000 0.880000 0
0.500000 0.900000 0
0.520000 0.900000 0
0.540000 0.900000 0
0.560000 0.900000 0
0.580000 0.900000 0
0.600000 0.900000 0
0.620000 0.900000 0
0.640000 0.900000 0
0.660000 0.900000 0
0.680000 0.900000 0
0.700000 0.900000 0
0.720000 0.900000 0
0.740000 0.900000 0
0.760000 0.900000 0
0.780000 0.900000 0
0.800000 0.900000 0
0.820000 0.900000 0
0.840000 0.900000 0
0.860000 0.900000 0
0.880000 0.900000 0
0.900000 0.900000 0
0.920000 0.900000 0
0.940000 0.900000 0
0.960000 0.900000 0
0.980000 0.900000 0
1.000000 0.900000 0
0.500000 0.920000 0
0.520000 0.920000 0
0.540000 0.920000 0
0.560000 0.920000 0
0.580000 0.920000 0
0.600000 0.920000 0
0.620000 0.920000 0
0.640000 0.920000 0
0.660000 0.920000 0
0.680000 0.920000 0
0.700000 0.920000 0
0.720000 0.920000 0
0.740000 0.920000 0
0.760000 0.920000 0
0.780000 0.920000 0
0.800000 0.920000 0
0.820000 0.920000 0
0.840000 0.920000 0
0.860000 0.920000 0
0.880000 0.920000 0
0.900000 0.920000 0
0.920000 0.920000 0
0.940000 0.920000 0
0.960000 0.920000 0
0.980000 0.920000 0
1.000000 0.920000 0
0.500000 0.940000 0
0.520000 0.940000 0
0.540000 0.940000 0
0.560000 0.940000 0
0.580000 0.940000 0
0.600000 0.940000 0
0.620000 0.940000 0
0.640000 0.940000 0
0.660000 0.940000 0
0.680000 0.940000 0
0.700000 0.940000 0
0.720000 0.940000 0
0.740000 0.940000 0
0.760000 0.940000 0
0.780000 0.940000 0
0.800000 0.940000 0
0.820000 0.940000 0
0.840000 0.940000 0
0.860000 0.940000 0
0.880000 0.940000 0
0.900000 0.940000 0
0.920000 0.940000 0
0.940000 0.940000 0
0.960000 0.940000 0
0.980000 0.940000 0
1.000000 0.940000 0
0.500000 0.960000 0
0.520000 0.960000 0
0.540000 0.960000 0
0.560000 0.960000 0
0.580000 0.960000 0
0.600000 0.960000 0
0.620000 0.960000 0
0.640000 0.960000 0
0.660000 0.960000 0
0.680000 0.960000 0
0.700000 0.960000 0
0.720000 0.960000 0
0.740000 0.960000 0
0.760000 0.960000 0
0.780000 0.960000 0
0.800000 0.960000 0
0.820000 0.960000 0
0.840000 0.960000 0
0.860000 0.960000 0
0.880000 0.960000 0
0.900000 0.960000 0
0.920000 0.960000 0
0.940000 0.960000 0
0.960000 0.960000 0
0.980000 0.960000 0
1.000000 0.960000 0
0.500000 0.980000 0
0.520000 0.980000 0
0.540000 0.980000 0
0.560000 0.980000 0
0.580000 0.980000 0
0.600000 0.980000 0
0.620000 0.980000 0
0.640000 0.980000 0
0.660000 0.980000 0
0.680000 0.980000 0
0.700000 0.980000 0
0.720000 0.980000 0
0.740000 0.980000 0
0.760000 0.980000 0
0.780000 0.980000 0
0.800000 0.980000 0
0.820000 0.980000 0
0.840000 0.980000 0
0.860000 0.980000 0
0.880000 0.980000 0
0.900000 0.980000 0
0.920000 0.980000 0
0.940000 0.980000 0
0.960000 0.980000 0
0.980000 0.980000 0
1.000000 0.980000 0
0.500000 1.000000 0
0.520000 1.000000 0
0.540000 1.000000 0
0.560000 1.000000 0
0.580000 1.000000 0
0.600000 1.000000 0
0.620000 1.000000 0
0.640000 1.000000 0
0.660000 1.000000 0
0.680000 1.000000 0
0.700000 1.000000 0
0.720000 1.000000 0
0.740000 1.000000 0
0.760000 1.000000 0
0.780000 1.000000 0
0.800000 1.000000 0
0.820000 1.000000 0
0.840000 1.000000 0
0.860000 1.000000 0
0.880000 1.000000 0
0.900000 1.000000 0
0.920000 1.000000 0
0.940000 1.000000 0
0.960000 1.000000 0
0.980000 1.000000 0
1.000000 1.000000 0
POINT_DATA 676 

VECTORS velocity float
3.000000 3.000000 0
3.000000 3.000000 0
3.000000 3.000000 0
3.000000 3.000000 0
3.000000 3.000000 0
3.000000 3.000000 0
3.000000 3.000000 0
3.000000 3.000000 0
3.000000 3.000000 0
3.000000 3.000000 0
3.000000 3.000000 0
3.000000 3.000000 0
3.000000 3.000000 0
3.000000 3.000000 0
3.000000 3.000000 0
3.000000 3.000000 0
3.000000 3.000000 0
3.000000 3.000000 0
3.000000 3.000000 0
3.000000 3.000000 0
3.000000 3.000000 0
3.000000 3.000000 0
3.000000 3.000000 0
3.000000 3.000000 0
3.000000 3.000000 0
3.000000 3.000000 0
3.000000 3.000000 0
3.000000 3.000000 0
3.000000 3.000000 0
3.000000 3.000000 0
3.000000 3.000000 0
3.000000 3.000000 0
3.000000 3.000000 0
3.000000 3.000000 0
3.000000 3.000000 0
3.000000 3.000000 0
3.000000 3.000000 0
3.000000 3.000000 0
3.000000 3.000000 0
3.000000 3.000000 0
3.000000 3.000000 0
3.000000 3.000000 0
3.000000 3.000000 0
3.000000 3.000000 0
3.000000 3.000000 0
3.000000 3.000000 0
3.000000 3.000000 0
3.000000 3.000000 0
3.000000 3.000000 0
3.000000 3.000000 0
3.000000 3.000000 0
3.000000 3.000000 0
3.000000 3.000000 0
3.000000 3.000000 0
3.000000 3.000000 0
3.000000 3.000000 0
3.000000 3.000000 0
3.000000 3.000000 0
3.000000 3.000000 0
3.000000 3.000000 0
3.000000 3.000000 0
3.000000 3.000000 0
3.000000 3.000000 0
3.000000 3.000000 0
3.000000 3.000000 0
3.000000 3.000000 0
3.000000 3.000000 0
3.000000 3.000000 0
3.000000 3.000000 0
3.000000 3.000000 0
3.000000 3.000000 0
3.000000 3.000000 0
3.000000 3.000000 0
3.000000 3.000000 0
3.000000 3.000000 0
3.000000 3.000000 0
3.000000 3.000000 0
3.000000 3.000000 0
3.000000 3.000000 0
3.000000 3.000000 0
3.000000 3.000000 0
3.000000 3.000000 0
3.000000 3.000000 0
3.000000 3.000000 0
3.000000 3.000000 0
3.000000 3.000000 0
3.000000 3.000000 0
3.000000 3.000000 0
3.000000 3.000000 0
3.000000 3.000000 0
3.000000 3.000000 0
3.000000 3.000000 0
3.000000 3.000000 0
3.000000 3.000000 0
3.000000 3.000000 0
3.000000 3.000000 0
3.000000 3.000000 0
3.000000 3.000000 0
3.000000 3.000000 0
3.000000 3.000000 0
3.000000 3.000000 0
3.000000 3.000000 0
3.000000 3.000000 0
3.000000 3.000000 0
3.000000 3.000000 0
3.000000 3.000000 0
3.000000 3.000000 0
3.000000 3.000000 0
3.000000 3.000000 0
3.000000 3.000000 0
3.000000 3.000000 0
3.000000 3.000000 0
3.000000 3.000000 0
3.000000 3.000000 0
3.000000 3.000000 0
3.000000 3.000000 0
3.000000 3.000000 0
3.000000 3.000000 0
3.000000 3.000000 0
3.000000 3.000000 0
3.000000 3.000000 0
3.000000 3.000000 0
3.000000 3.000000 0
3.000000 3.000000 0
3.000000 3.000000 0
3.000000 3.000000 0
3.000000 3.000000 0
3.000000 3.000000 0
3.000000 3.000000 0
3.000000 3.000000 0
3.000000 3.000000 0
3.000000 3.000000 0
3.000000 3.000000 0
3.000000 3.000000 0
3.000000 3.000000 0
3.000000 3.000000 0
3.000000 3.000000 0
3.000000 3.000000 0
3.000000 3.000000 0
3.000000 3.000000 0
3.000000 3.000000 0
3.000000 3.000000 0
3.000000 3.000000 0
3.000000 3.000000 0
3.000000 3.000000 0
3.000000 3.000000 0
3.000000 3.000000 0
3.000000 3.000000 0
3.000000 3.000000 0
3.000000 3.000000 0
3.000000 3.000000 0
3.000000 3.000000 0
3.000000 3.000000 0
3.000000 3.000000 0
3.000000 3.000000 0
3.000000 3.000000 0
3.000000 3.000000 0
3.000000 3.000000 0
3.000000 3.000000 0
3.000000 3.000000 0
3.000000 3.000000 0
3.000000 3.000000 0
3.000000 3.000000 0
3.000000 3.000000 0
3.000000 3.000000 0
3.000000 3.000000 0
3.000000 3.000000 0
3.000000 3.000000 0
3.000000 3.000000 0
3.000000 3.000000 0
3.000000 3.000000 0
3.000000 3.000000 0
3.000000 3.000000 0
3.000000 3.000000 0
3.000000 3.000000 0
3.000000 3.000000 0
3.000000 3.000000 0
3.000000 3.000000 0
3.000000 3.000000 0
3.000000 3.000000 0
3.000000 3.000000 0
3.000000 3.000000 0
3.000000 3.000000 0
3.000000 3.000000 0
3.000000 3.000000 0
3.000000 3.000000 0
3.000000 3.000000 0
3.000000 3.000000 0
3.000000 3.000000 0
3.000000 3.000000 0
3.000000 3.000000 0
3.000000 3.000000 0
3.000000 3.000000 0
3.000000 3.000000 0
3.000000 3.000000 0
3.000000 3.000000 0
3.000000 3.000000 0
3.000000 3.000000 0
3.000000 3.000000 0
3.000000 3.000000 0
3.000000 3.000000 0
3.000000 3.000000 0
3.000000 3.000000 0
3.000000 3.000000 0
3.000000 3.000000 0
3.000000 3.000000 0
3.000000 3.000000 0
3.000000 3.000000 0
3.000000 3.000000 0
3.000000 3.000000 0
3.000000 3.000000 0
3.000000 3.000000 0
3.000000 3.000000 0
3.000000 3.000000 0
3.000000 3.000000 0
3.000000 3.000000 0
3.000000 3.000000 0
3.000000 3.000000 0
3.000000 3.000000 0
3.000000 3.000000 0
3.000000 3.000000 0
3.000000 3.000000 0
3.000000 3.000000 0
3.000000 3.000000 0
3.000000 3.000000 0
3.000000 3.000000 0
3.000000 3.000000 0
3.000000 3.000000 0
3.000000 3.000000 0
3.000000 3.000000 0
3.000000 3.000000 0
3.000000 3.000000 0
3.000000 3.000000 0
3.000000 3.000000 0
3.000000 3.000000 0
3.000000 3.000000 0
3.000000 3.000000 0
3.000000 3.000000 0
3.000000 3.000000 0
3.000000 3.000000 0
3.000000 3.000000 0
3.000000 3.000000 0
3.000000 3.000000 0
3.000000 3.000000 0
3.000000 3.000000 0
3.000000 3.000000 0
3.000000 3.000000 0
3.000000 3.000000 0
3.000000 3.000000 0
3.000000 3.000000 0
3.000000 3.000000 0
3.000000 3.000000 0
3.000000 3.000000 0
3.000000 3.000000 0
3.000000 3.000000 0
3.000000 3.000000 0
3.000000 3.000000 0
3.000000 3.000000 0
3.000000 3.000000 0
3.000000 3.000000 0
3.000000 3.000000 0
3.000000 3.000000 0
3.000000 3.000000 0
3.000000 3.000000 0
3.000000 3.000000 0
3.000000 3.000000 0
3.000000 3.000000 0
3.000000 3.000000 0
3.000000 3.000000 0
3.000000 3.000000 0
3.000000 3.000000 0
3.000000 3.000000 0
3.000000 3.000000 0
3.000000 3.000000 0
3.000000 3.000000 0
3.000000 3.000000 0
3.000000 3.000000 0
3.000000 3.000000 0
3.000000 3.000000 0
3.000000 3.000000 0
3.000000 3.000000 0
3.000000 3.000000 0
3.000000 3.000000 0
3.000000 3.000000 0
3.000000 3.000000 0
3.000000 3.000000 0
3.000000 3.000000 0
3.000000 3.000000 0
3.000000 3.000000 0
3.000000 3.000000 0
3.000000 3.000000 0
3.000000 3.000000 0
3.000000 3.000000 0
3.000000 3.000000 0
3.000000 3.000000 0
3.000000 3.000000 0
3.000000 3.000000 0
3.000000 3.000000 0
3.000000 3.000000 0
3.000000 3.000000 0
3.000000 3.000000 0
3.000000 3.000000 0
3.000000 3.000000 0
3.000000 3.000000 0
3.000000 3.000000 0
3.000000 3.000000 0
3.000000 3.000000 0
3.000000 3.000000 0
3.000000 3.000000 0
3.000000 3.000000 0
3.000000 3.000000 0
3.000000 3.000000 0
3.000000 3.000000 0
3.000000 3.000000 0
3.000000 3.000000 0
3.000000 3.000000 0
3.000000 3.000000 0
3.000000 3.000000 0
3.000000 3.000000 0
3.000000 3.000000 0
3.000000 3.000000 0
3.000000 3.000000 0
3.000000 3.000000 0
3.000000 3.000000 0
3.000000 3.000000 0
3.000000 3.000000 0
3.000000 3.000000 0
3.000000 3.000000 0
3.000000 3.000000 0
3.000000 3.000000 0
3.000000 3.000000 0
3.000000 3.000000 0
3.000000 3.000000 0
3.000000 3.000000 0
3.000000 3.000000 0
3.000000 3.000000 0
3.000000 3.000000 0
3.000000 3.000000 0
3.000000 3.000000 0
3.000000 3.000000 0
3.000000 3.000000 0
3.000000 3.000000 0
3.000000 3.000000 0
3.000000 3.000000 0
3.000000 3.000000 0
3.000000 3.000000 0
3.000000 3.000000 0
3.000000 3.000000 0
3.000000 3.000000 0
3.000000 3.000000 0
3.000000 3.000000 0
3.000000 3.000000 0
3.000000 3.000000 0
3.000000 3.000000 0
3.000000 3.000000 0
3.000000 3.000000 0
3.000000 3.000000 0
3.000000 3.000000 0
3.000000 3.000000 0
3.000000 3.000000 0
3.000000 3.000000 0
3.000000 3.000000 0
3.000000 3.000000 0
3.000000 3.000000 0
3.000000 3.000000 0
3.000000 3.000000 0
3.000000 3.000000 0
3.000000 3.000000 0
3.000000 3.000000 0
3.000000 3.000000 0
3.000000 3.000000 0
3.000000 3.000000 0
3.000000 3.000000 0
3.000000 3.000000 0
3.000000 3.000000 0
3.000000 3.000000 0
3.000000 3.000000 0
3.000000 3.000000 0
3.000000 3.000000 0
3.000000 3.000000 0
3.000000 3.000000 0
3.000000 3.000000 0
3.000000 3.000000 0
3.000000 3.000000 0
3.000000 3.000000 0
3.000000 3.000000 0
3.000000 3.000000 0
3.000000 3.000000 0
3.000000 3.000000 0
3.000000 3.000000 0
3.000000 3.000000 0
3.000000 3.000000 0
3.000000 3.000000 0
3.000000 3.000000 0
3.000000 3.000000 0
3.000000 3.000000 0
3.000000 3.000000 0
3.000000 3.000000 0
3.000000 3.000000 0
3.000000 3.000000 0
3.000000 3.000000 0
3.000000 3.000000 0
3.000000 3.000000 0
3.000000 3.000000 0
3.000000 3.000000 0
3.000000 3.000000 0
3.000000 3.000000 0
3.000000 3.000000 0
3.000000 3.000000 0
3.000000 3.000000 0
3.000000 3.000000 0
3.000000 3.000000 0
3.000000 3.000000 0
3.000000 3.000000 0
3.000000 3.000000 0
3.000000 3.000000 0
3.000000 3.000000 0
3.000000 3.000000 0
3.000000 3.000000 0
3.000000 3.000000 0
3.000000 3.000000 0
3.000000 3.000000 0
3.000000 3.000000 0
3.000000 3.000000 0
3.000000 3.000000 0
3.000000 3.000000 0
3.000000 3.000000 0
3.000000 3.000000 0
3.000000 3.000000 0
3.000000 3.000000 0
3.000000 3.000000 0
3.000000 3.000000 0
3.000000 3.000000 0
3.000000 3.000000 0
3.000000 3.000000 0
3.000000 3.000000 0
3.000000 3.000000 0
3.000000 3.000000 0
3.000000 3.000000 0
3.000000 3.000000 0
3.000000 3.000000 0
3.000000 3.000000 0
3.000000 3.000000 0
3.000000 3.000000 0
3.000000 3.000000 0
3.000000 3.000000 0
3.000000 3.000000 0
3.000000 3.000000 0
3.000000 3.000000 0
3.000000 3.000000 0
3.000000 3.000000 0
3.000000 3.000000 0
3.000000 3.000000 0
3.000000 3.000000 0
3.000000 3.000000 0
3.000000 3.000000 0
3.000000 3.000000 0
3.000000 3.000000 0
3.000000 3.000000 0
3.000000 3.000000 0
3.000000 3.000000 0
3.000000 3.000000 0
3.000000 3.000000 0
3.000000 3.000000 0
3.000000 3.000000 0
3.000000 3.000000 0
3.000000 3.000000 0
3.000000 3.000000 0
3.000000 3.000000 0
3.000000 3.000000 0
3.000000 3.000000 0
3.000000 3.000000 0
3.000000 3.000000 0
3.000000 3.000000 0
3.000000 3.000000 0
3.000000 3.000000 0
3.000000 3.000000 0
3.000000 3.000000 0
3.000000 3.000000 0
3.000000 3.000000 0
3.000000 3.000000 0
3.000000 3.000000 0
3.000000 3.000000 0
3.000000 3.000000 0
3.000000 3.000000 0
3.000000 3.000000 0
3.000000 3.000000 0
3.000000 3.000000 0
3.000000 3.000000 0
3.000000 3.000000 0
3.000000 3.000000 0
3.000000 3.000000 0
3.000000 3.000000 0
3.000000 3.000000 0
3.000000 3.000000 0
3.000000 3.000000 0
3.000000 3.000000 0
3.000000 3.000000 0
3.000000 3.000000 0
3.000000 3.000000 0
3.000000 3.000000 0
3.000000 3.000000 0
3.000000 3.000000 0
3.000000 3.000000 0
3.000000 3.000000 0
3.000000 3.000000 0
3.000000 3.000000 0
3.000000 3.000000 0
3.000000 3.000000 0
3.000000 3.000000 0
3.000000 3.000000 0
3.000000 3.000000 0
3.000000 3.000000 0
3.000000 3.000000 0
3.000000 3.000000 0
3.000000 3.000000 0
3.000000 3.000000 0
3.000000 3.000000 0
3.000000 3.000000 0
3.000000 3.000000 0
3.000000 3.000000 0
3.000000 3.000000 0
3.000000 3.000000 0
3.000000 3.000000 0
3.000000 3.000000 0
3.000000 3.000000 0
3.000000 3.000000 0
3.000000 3.000000 0
3.000000 3.000000 0
3.000000 3.000000 0
3.000000 3.000000 0
3.000000 3.000000 0
3.000000 3.000000 0
3.000000 3.000000 0
3.000000 3.000000 0
3.000000 3.000000 0
3.000000 3.000000 0
3.000000 3.000000 0
3.000000 3.000000 0
3.000000 3.000000 0
3.000000 3.000000 0
3.000000 3.000000 0
3.000000 3.000000 0
3.000000 3.000000 0
3.000000 3.000000 0
3.000000 3.000000 0
3.000000 3.000000 0
3.000000 3.000000 0
3.000000 3.000000 0
3.000000 3.000000 0
3.000000 3.000000 0
3.000000 3.000000 0
3.000000 3.000000 0
3.000000 3.000000 0
3.000000 3.000000 0
3.000000 3.000000 0
3.000000 3.000000 0
3.000000 3.000000 0
3.000000 3.000000 0
3.000000 3.000000 0
3.000000 3.000000 0
3.000000 3.000000 0
3.000000 3.000000 0
3.000000 3.000000 0
3.000000 3.000000 0
3.000000 3.000000 0
3.000000 3.000000 0
3.000000 3.000000 0
3.000000 3.000000 0
3.000000 3.000000 0
3.000000 3.000000 0
3.000000 3.000000 0
3.000000 3.000000 0
3.000000 3.000000 0
3.000000 3.000000 0
3.000000 3.000000 0
3.000000 3.000000 0
3.000000 3.000000 0
3.000000 3.000000 0
3.000000 3.000000 0
3.000000 3.000000 0
3.000000 3.000000 0
3.000000 3.000000 0
3.000000 3.000000 0
3.000000 3.000000 0
3.000000 3.000000 0
3.000000 3.000000 0
3.000000 3.000000 0
3.000000 3.000000 0
3.000000 3.000000 0
3.000000 3.000000 0
3.000000 3.000000 0
3.000000 3.000000 0
3.000000 3.000000 0
3.000000 3.000000 0
3.000000 3.000000 0
3.000000 3.000000 0
3.000000 3.000000 0
3.000000 3.000000 0
3.000000 3.000000 0
3.000000 3.000000 0
3.000000 3.000000 0
3.000000 3.000000 0
3.000000 3.000000 0
3.000000 3.000000 0
3.000000 3.000000 0
3.000000 3.000000 0
3.000000 3.000000 0
3.000000 3.000000 0
3.000000 3.000000 0
3.000000 3.000000 0
3.000000 3.000000 0
3.000000 3.000000 0
3.000000 3.000000 0
3.000000 3.000000 0
3.000000 3.000000 0
3.000000 3.000000 0
3.000000 3.000000 0
3.000000 3.000000 0
3.000000 3.000000 0
3.000000 3.000000 0
3.000000 3.000000 0
3.000000 3.000000 0
3.000000 3.000000 0
3.000000 3.000000 0
3.000000 3.000000 0
3.000000 3.000000 0
3.000000 3.000000 0
3.000000 3.000000 0
3.000000 3.000000 0
3.000000 3.000000 0
3.000000 3.000000 0
3.000000 3.000000 0
3.000000 3.000000 0
3.000000 3.000000 0
3.000000 3.000000 0
3.000000 3.000000 0
3.000000 3.000000 0
3.000000 3.000000 0
3.000000 3.000000 0
3.000000 3.000000 0
3.000000 3.000000 0
3.000000 3.000000 0
3.000000 3.000000 0
3.000000 3.000000 0
3.000000 3.000000 0
3.000000 3.000000 0
3.000000 3.000000 0
3.000000 3.000000 0
3.000000 3.000000 0
3.000000 3.000000 0
3.000000 3.000000 0
3.000000 3.000000 0
3.000000 3.000000 0
3.000000 3.000000 0
3.000000 3.000000 0
3.000000 3.000000 0
3.000000 3.000000 0
3.000000 3.000000 0
3.000000 3.000000 0
3.000000 3.000000 0
3.000000 3.000000 0
3.000000 3.000000 0
3.000000 3.000000 0
3.000000 3.000000 0
3.000000 3.000000 0
3.000000 3.000000 0
3.000000 3.000000 0
3.000000 3.000000 0
3.000000 3.000000 0
3.000000 3.000000 0
3.000000 3.000000 0
3.000000 3.000000 0
3.000000 3.000000 0
3.000000 3.000000 0
3.000000 3.000000 0

CELL_DATA 625 
SCALARS pressure float 1 
LOOKUP_TABLE default 
3.000000
3.000000
3.000000
3.000000
3.000000
3.000000
3.000000
3.000000
3.000000
3.000000
3.000000
3.000000
3.000000
3.000000
3.000000
3.000000
3.000000
3.000000
3.000000
3.000000
3.000000
3.000000
3.000000
3.000000
3.000000
3.000000
3.000000
3.000000
3.000000
3.000000
3.000000
3.000000
3.000000
3.000000
3.000000
3.000000
3.000000
3.000000
3.000000
3.000000
3.000000
3.000000
3.000000
3.000000
3.000000
3.000000
3.000000
3.000000
3.000000
3.000000
3.000000
3.000000
3.000000
3.000000
3.000000
3.000000
3.000000
3.000000
3.000000
3.000000
3.000000
3.000000
3.000000
3.000000
3.000000
3.000000
3.000000
3.000000
3.000000
3.000000
3.000000
3.000000
3.000000
3.000000
3.000000
3.000000
3.000000
3.000000
3.000000
3.000000
3.000000
3.000000
3.000000
3.000000
3.000000
3.000000
3.000000
3.000000
3.000000
3.000000
3.000000
3.000000
3.000000
3.000000
3.000000
3.000000
3.000000
3.000000
3.000000
3.000000
3.000000
3.000000
3.000000
3.000000
3.000000
3.000000
3.000000
3.000000
3.000000
3.000000
3.000000
3.000000
3.000000
3.000000
3.000000
3.000000
3.000000
3.000000
3.000000
3.000000
3.000000
3.000000
3.000000
3.000000
3.000000
3.000000
3.000000
3.000000
3.000000
3.000000
3.000000
3.000000
3.000000
3.000000
3.000000
3.000000
3.000000
3.000000
3.000000
3.000000
3.000000
3.000000
3.000000
3.000000
3.000000
3.000000
3.000000
3.000000
3.000000
3.000000
3.000000
3.000000
3.000000
3.000000
3.000000
3.000000
3.000000
3.000000
3.000000
3.000000
3.000000
3.000000
3.000000
3.000000
3.000000
3.000000
3.000000
3.000000
3.000000
3.000000
3.000000
3.000000
3.000000
3.000000
3.000000
3.000000
3.000000
3.000000
3.000000
3.000000
3.000000
3.000000
3.000000
3.000000
3.000000
3.000000
3.000000
3.000000
3.000000
3.000000
3.000000
3.000000
3.000000
3.000000
3.000000
3.000000
3.000000
3.000000
3.000000
3.000000
3.000000
3.000000
3.000000
3.000000
3.000000
3.000000
3.000000
3.000000
3.000000
3.000000
3.000000
3.000000
3.000000
3.000000
3.000000
3.000000
3.000000
3.000000
3.000000
3.000000
3.000000
3.000000
3.000000
3.000000
3.000000
3.000000
3.000000
3.000000
3.000000
3.000000
3.000000
3.000000
3.000000
3.000000
3.000000
3.000000
3.000000
3.000000
3.000000
3.000000
3.000000
3.000000
3.000000
3.000000
3.000000
3.000000
3.000000
3.000000
3.000000
3.000000
3.000000
3.000000
3.000000
3.000000
3.000000
3.000000
3.000000
3.000000
3.000000
3.000000
3.000000
3.000000
3.000000
3.000000
3.000000
3.000000
3.000000
3.000000
3.000000
3.000000
3.000000
3.000000
3.000000
3.000000
3.000000
3.000000
3.000000
3.000000
3.000000
3.000000
3.000000
3.000000
3.000000
3.000000
3.000000
3.000000
3.000000
3.000000
3.000000
3.000000
3.000000
3.000000
3.000000
3.000000
3.000000
3.000000
3.000000
3.000000
3.000000