# vtk DataFile Version 2.0
generated by CFD-lab course output (written by Tobias Neckel) 
ASCII

DATASET STRUCTURED_GRID
DIMENSIONS  26 26 1 
POINTS 676 float

0.500000 0.000000 0
0.520000 0.000000 0
0.540000 0.000000 0
0.560000 0.000000 0
0.580000 0.000000 0
0.600000 0.000000 0
0.620000 0.000000 0
0.640000 0.000000 0
0.660000 0.000000 0
0.680000 0.000000 0
0.700000 0.000000 0
0.720000 0.000000 0
0.740000 0.000000 0
0.760000 0.000000 0
0.780000 0.000000 0
0.800000 0.000000 0
0.820000 0.000000 0
0.840000 0.000000 0
0.860000 0.000000 0
0.880000 0.000000 0
0.900000 0.000000 0
0.920000 0.000000 0
0.940000 0.000000 0
0.960000 0.000000 0
0.980000 0.000000 0
1.000000 0.000000 0
0.500000 0.020000 0
0.520000 0.020000 0
0.540000 0.020000 0
0.560000 0.020000 0
0.580000 0.020000 0
0.600000 0.020000 0
0.620000 0.020000 0
0.640000 0.020000 0
0.660000 0.020000 0
0.680000 0.020000 0
0.700000 0.020000 0
0.720000 0.020000 0
0.740000 0.020000 0
0.760000 0.020000 0
0.780000 0.020000 0
0.800000 0.020000 0
0.820000 0.020000 0
0.840000 0.020000 0
0.860000 0.020000 0
0.880000 0.020000 0
0.900000 0.020000 0
0.920000 0.020000 0
0.940000 0.020000 0
0.960000 0.020000 0
0.980000 0.020000 0
1.000000 0.020000 0
0.500000 0.040000 0
0.520000 0.040000 0
0.540000 0.040000 0
0.560000 0.040000 0
0.580000 0.040000 0
0.600000 0.040000 0
0.620000 0.040000 0
0.640000 0.040000 0
0.660000 0.040000 0
0.680000 0.040000 0
0.700000 0.040000 0
0.720000 0.040000 0
0.740000 0.040000 0
0.760000 0.040000 0
0.780000 0.040000 0
0.800000 0.040000 0
0.820000 0.040000 0
0.840000 0.040000 0
0.860000 0.040000 0
0.880000 0.040000 0
0.900000 0.040000 0
0.920000 0.040000 0
0.940000 0.040000 0
0.960000 0.040000 0
0.980000 0.040000 0
1.000000 0.040000 0
0.500000 0.060000 0
0.520000 0.060000 0
0.540000 0.060000 0
0.560000 0.060000 0
0.580000 0.060000 0
0.600000 0.060000 0
0.620000 0.060000 0
0.640000 0.060000 0
0.660000 0.060000 0
0.680000 0.060000 0
0.700000 0.060000 0
0.720000 0.060000 0
0.740000 0.060000 0
0.760000 0.060000 0
0.780000 0.060000 0
0.800000 0.060000 0
0.820000 0.060000 0
0.840000 0.060000 0
0.860000 0.060000 0
0.880000 0.060000 0
0.900000 0.060000 0
0.920000 0.060000 0
0.940000 0.060000 0
0.960000 0.060000 0
0.980000 0.060000 0
1.000000 0.060000 0
0.500000 0.080000 0
0.520000 0.080000 0
0.540000 0.080000 0
0.560000 0.080000 0
0.580000 0.080000 0
0.600000 0.080000 0
0.620000 0.080000 0
0.640000 0.080000 0
0.660000 0.080000 0
0.680000 0.080000 0
0.700000 0.080000 0
0.720000 0.080000 0
0.740000 0.080000 0
0.760000 0.080000 0
0.780000 0.080000 0
0.800000 0.080000 0
0.820000 0.080000 0
0.840000 0.080000 0
0.860000 0.080000 0
0.880000 0.080000 0
0.900000 0.080000 0
0.920000 0.080000 0
0.940000 0.080000 0
0.960000 0.080000 0
0.980000 0.080000 0
1.000000 0.080000 0
0.500000 0.100000 0
0.520000 0.100000 0
0.540000 0.100000 0
0.560000 0.100000 0
0.580000 0.100000 0
0.600000 0.100000 0
0.620000 0.100000 0
0.640000 0.100000 0
0.660000 0.100000 0
0.680000 0.100000 0
0.700000 0.100000 0
0.720000 0.100000 0
0.740000 0.100000 0
0.760000 0.100000 0
0.780000 0.100000 0
0.800000 0.100000 0
0.820000 0.100000 0
0.840000 0.100000 0
0.860000 0.100000 0
0.880000 0.100000 0
0.900000 0.100000 0
0.920000 0.100000 0
0.940000 0.100000 0
0.960000 0.100000 0
0.980000 0.100000 0
1.000000 0.100000 0
0.500000 0.120000 0
0.520000 0.120000 0
0.540000 0.120000 0
0.560000 0.120000 0
0.580000 0.120000 0
0.600000 0.120000 0
0.620000 0.120000 0
0.640000 0.120000 0
0.660000 0.120000 0
0.680000 0.120000 0
0.700000 0.120000 0
0.720000 0.120000 0
0.740000 0.120000 0
0.760000 0.120000 0
0.780000 0.120000 0
0.800000 0.120000 0
0.820000 0.120000 0
0.840000 0.120000 0
0.860000 0.120000 0
0.880000 0.120000 0
0.900000 0.120000 0
0.920000 0.120000 0
0.940000 0.120000 0
0.960000 0.120000 0
0.980000 0.120000 0
1.000000 0.120000 0
0.500000 0.140000 0
0.520000 0.140000 0
0.540000 0.140000 0
0.560000 0.140000 0
0.580000 0.140000 0
0.600000 0.140000 0
0.620000 0.140000 0
0.640000 0.140000 0
0.660000 0.140000 0
0.680000 0.140000 0
0.700000 0.140000 0
0.720000 0.140000 0
0.740000 0.140000 0
0.760000 0.140000 0
0.780000 0.140000 0
0.800000 0.140000 0
0.820000 0.140000 0
0.840000 0.140000 0
0.860000 0.140000 0
0.880000 0.140000 0
0.900000 0.140000 0
0.920000 0.140000 0
0.940000 0.140000 0
0.960000 0.140000 0
0.980000 0.140000 0
1.000000 0.140000 0
0.500000 0.160000 0
0.520000 0.160000 0
0.540000 0.160000 0
0.560000 0.160000 0
0.580000 0.160000 0
0.600000 0.160000 0
0.620000 0.160000 0
0.640000 0.160000 0
0.660000 0.160000 0
0.680000 0.160000 0
0.700000 0.160000 0
0.720000 0.160000 0
0.740000 0.160000 0
0.760000 0.160000 0
0.780000 0.160000 0
0.800000 0.160000 0
0.820000 0.160000 0
0.840000 0.160000 0
0.860000 0.160000 0
0.880000 0.160000 0
0.900000 0.160000 0
0.920000 0.160000 0
0.940000 0.160000 0
0.960000 0.160000 0
0.980000 0.160000 0
1.000000 0.160000 0
0.500000 0.180000 0
0.520000 0.180000 0
0.540000 0.180000 0
0.560000 0.180000 0
0.580000 0.180000 0
0.600000 0.180000 0
0.620000 0.180000 0
0.640000 0.180000 0
0.660000 0.180000 0
0.680000 0.180000 0
0.700000 0.180000 0
0.720000 0.180000 0
0.740000 0.180000 0
0.760000 0.180000 0
0.780000 0.180000 0
0.800000 0.180000 0
0.820000 0.180000 0
0.840000 0.180000 0
0.860000 0.180000 0
0.880000 0.180000 0
0.900000 0.180000 0
0.920000 0.180000 0
0.940000 0.180000 0
0.960000 0.180000 0
0.980000 0.180000 0
1.000000 0.180000 0
0.500000 0.200000 0
0.520000 0.200000 0
0.540000 0.200000 0
0.560000 0.200000 0
0.580000 0.200000 0
0.600000 0.200000 0
0.620000 0.200000 0
0.640000 0.200000 0
0.660000 0.200000 0
0.680000 0.200000 0
0.700000 0.200000 0
0.720000 0.200000 0
0.740000 0.200000 0
0.760000 0.200000 0
0.780000 0.200000 0
0.800000 0.200000 0
0.820000 0.200000 0
0.840000 0.200000 0
0.860000 0.200000 0
0.880000 0.200000 0
0.900000 0.200000 0
0.920000 0.200000 0
0.940000 0.200000 0
0.960000 0.200000 0
0.980000 0.200000 0
1.000000 0.200000 0
0.500000 0.220000 0
0.520000 0.220000 0
0.540000 0.220000 0
0.560000 0.220000 0
0.580000 0.220000 0
0.600000 0.220000 0
0.620000 0.220000 0
0.640000 0.220000 0
0.660000 0.220000 0
0.680000 0.220000 0
0.700000 0.220000 0
0.720000 0.220000 0
0.740000 0.220000 0
0.760000 0.220000 0
0.780000 0.220000 0
0.800000 0.220000 0
0.820000 0.220000 0
0.840000 0.220000 0
0.860000 0.220000 0
0.880000 0.220000 0
0.900000 0.220000 0
0.920000 0.220000 0
0.940000 0.220000 0
0.960000 0.220000 0
0.980000 0.220000 0
1.000000 0.220000 0
0.500000 0.240000 0
0.520000 0.240000 0
0.540000 0.240000 0
0.560000 0.240000 0
0.580000 0.240000 0
0.600000 0.240000 0
0.620000 0.240000 0
0.640000 0.240000 0
0.660000 0.240000 0
0.680000 0.240000 0
0.700000 0.240000 0
0.720000 0.240000 0
0.740000 0.240000 0
0.760000 0.240000 0
0.780000 0.240000 0
0.800000 0.240000 0
0.820000 0.240000 0
0.840000 0.240000 0
0.860000 0.240000 0
0.880000 0.240000 0
0.900000 0.240000 0
0.920000 0.240000 0
0.940000 0.240000 0
0.960000 0.240000 0
0.980000 0.240000 0
1.000000 0.240000 0
0.500000 0.260000 0
0.520000 0.260000 0
0.540000 0.260000 0
0.560000 0.260000 0
0.580000 0.260000 0
0.600000 0.260000 0
0.620000 0.260000 0
0.640000 0.260000 0
0.660000 0.260000 0
0.680000 0.260000 0
0.700000 0.260000 0
0.720000 0.260000 0
0.740000 0.260000 0
0.760000 0.260000 0
0.780000 0.260000 0
0.800000 0.260000 0
0.820000 0.260000 0
0.840000 0.260000 0
0.860000 0.260000 0
0.880000 0.260000 0
0.900000 0.260000 0
0.920000 0.260000 0
0.940000 0.260000 0
0.960000 0.260000 0
0.980000 0.260000 0
1.000000 0.260000 0
0.500000 0.280000 0
0.520000 0.280000 0
0.540000 0.280000 0
0.560000 0.280000 0
0.580000 0.280000 0
0.600000 0.280000 0
0.620000 0.280000 0
0.640000 0.280000 0
0.660000 0.280000 0
0.680000 0.280000 0
0.700000 0.280000 0
0.720000 0.280000 0
0.740000 0.280000 0
0.760000 0.280000 0
0.780000 0.280000 0
0.800000 0.280000 0
0.820000 0.280000 0
0.840000 0.280000 0
0.860000 0.280000 0
0.880000 0.280000 0
0.900000 0.280000 0
0.920000 0.280000 0
0.940000 0.280000 0
0.960000 0.280000 0
0.980000 0.280000 0
1.000000 0.280000 0
0.500000 0.300000 0
0.520000 0.300000 0
0.540000 0.300000 0
0.560000 0.300000 0
0.580000 0.300000 0
0.600000 0.300000 0
0.620000 0.300000 0
0.640000 0.300000 0
0.660000 0.300000 0
0.680000 0.300000 0
0.700000 0.300000 0
0.720000 0.300000 0
0.740000 0.300000 0
0.760000 0.300000 0
0.780000 0.300000 0
0.800000 0.300000 0
0.820000 0.300000 0
0.840000 0.300000 0
0.860000 0.300000 0
0.880000 0.300000 0
0.900000 0.300000 0
0.920000 0.300000 0
0.940000 0.300000 0
0.960000 0.300000 0
0.980000 0.300000 0
1.000000 0.300000 0
0.500000 0.320000 0
0.520000 0.320000 0
0.540000 0.320000 0
0.560000 0.320000 0
0.580000 0.320000 0
0.600000 0.320000 0
0.620000 0.320000 0
0.640000 0.320000 0
0.660000 0.320000 0
0.680000 0.320000 0
0.700000 0.320000 0
0.720000 0.320000 0
0.740000 0.320000 0
0.760000 0.320000 0
0.780000 0.320000 0
0.800000 0.320000 0
0.820000 0.320000 0
0.840000 0.320000 0
0.860000 0.320000 0
0.880000 0.320000 0
0.900000 0.320000 0
0.920000 0.320000 0
0.940000 0.320000 0
0.960000 0.320000 0
0.980000 0.320000 0
1.000000 0.320000 0
0.500000 0.340000 0
0.520000 0.340000 0
0.540000 0.340000 0
0.560000 0.340000 0
0.580000 0.340000 0
0.600000 0.340000 0
0.620000 0.340000 0
0.640000 0.340000 0
0.660000 0.340000 0
0.680000 0.340000 0
0.700000 0.340000 0
0.720000 0.340000 0
0.740000 0.340000 0
0.760000 0.340000 0
0.780000 0.340000 0
0.800000 0.340000 0
0.820000 0.340000 0
0.840000 0.340000 0
0.860000 0.340000 0
0.880000 0.340000 0
0.900000 0.340000 0
0.920000 0.340000 0
0.940000 0.340000 0
0.960000 0.340000 0
0.980000 0.340000 0
1.000000 0.340000 0
0.500000 0.360000 0
0.520000 0.360000 0
0.540000 0.360000 0
0.560000 0.360000 0
0.580000 0.360000 0
0.600000 0.360000 0
0.620000 0.360000 0
0.640000 0.360000 0
0.660000 0.360000 0
0.680000 0.360000 0
0.700000 0.360000 0
0.720000 0.360000 0
0.740000 0.360000 0
0.760000 0.360000 0
0.780000 0.360000 0
0.800000 0.360000 0
0.820000 0.360000 0
0.840000 0.360000 0
0.860000 0.360000 0
0.880000 0.360000 0
0.900000 0.360000 0
0.920000 0.360000 0
0.940000 0.360000 0
0.960000 0.360000 0
0.980000 0.360000 0
1.000000 0.360000 0
0.500000 0.380000 0
0.520000 0.380000 0
0.540000 0.380000 0
0.560000 0.380000 0
0.580000 0.380000 0
0.600000 0.380000 0
0.620000 0.380000 0
0.640000 0.380000 0
0.660000 0.380000 0
0.680000 0.380000 0
0.700000 0.380000 0
0.720000 0.380000 0
0.740000 0.380000 0
0.760000 0.380000 0
0.780000 0.380000 0
0.800000 0.380000 0
0.820000 0.380000 0
0.840000 0.380000 0
0.860000 0.380000 0
0.880000 0.380000 0
0.900000 0.380000 0
0.920000 0.380000 0
0.940000 0.380000 0
0.960000 0.380000 0
0.980000 0.380000 0
1.000000 0.380000 0
0.500000 0.400000 0
0.520000 0.400000 0
0.540000 0.400000 0
0.560000 0.400000 0
0.580000 0.400000 0
0.600000 0.400000 0
0.620000 0.400000 0
0.640000 0.400000 0
0.660000 0.400000 0
0.680000 0.400000 0
0.700000 0.400000 0
0.720000 0.400000 0
0.740000 0.400000 0
0.760000 0.400000 0
0.780000 0.400000 0
0.800000 0.400000 0
0.820000 0.400000 0
0.840000 0.400000 0
0.860000 0.400000 0
0.880000 0.400000 0
0.900000 0.400000 0
0.920000 0.400000 0
0.940000 0.400000 0
0.960000 0.400000 0
0.980000 0.400000 0
1.000000 0.400000 0
0.500000 0.420000 0
0.520000 0.420000 0
0.540000 0.420000 0
0.560000 0.420000 0
0.580000 0.420000 0
0.600000 0.420000 0
0.620000 0.420000 0
0.640000 0.420000 0
0.660000 0.420000 0
0.680000 0.420000 0
0.700000 0.420000 0
0.720000 0.420000 0
0.740000 0.420000 0
0.760000 0.420000 0
0.780000 0.420000 0
0.800000 0.420000 0
0.820000 0.420000 0
0.840000 0.420000 0
0.860000 0.420000 0
0.880000 0.420000 0
0.900000 0.420000 0
0.920000 0.420000 0
0.940000 0.420000 0
0.960000 0.420000 0
0.980000 0.420000 0
1.000000 0.420000 0
0.500000 0.440000 0
0.520000 0.440000 0
0.540000 0.440000 0
0.560000 0.440000 0
0.580000 0.440000 0
0.600000 0.440000 0
0.620000 0.440000 0
0.640000 0.440000 0
0.660000 0.440000 0
0.680000 0.440000 0
0.700000 0.440000 0
0.720000 0.440000 0
0.740000 0.440000 0
0.760000 0.440000 0
0.780000 0.440000 0
0.800000 0.440000 0
0.820000 0.440000 0
0.840000 0.440000 0
0.860000 0.440000 0
0.880000 0.440000 0
0.900000 0.440000 0
0.920000 0.440000 0
0.940000 0.440000 0
0.960000 0.440000 0
0.980000 0.440000 0
1.000000 0.440000 0
0.500000 0.460000 0
0.520000 0.460000 0
0.540000 0.460000 0
0.560000 0.460000 0
0.580000 0.460000 0
0.600000 0.460000 0
0.620000 0.460000 0
0.640000 0.460000 0
0.660000 0.460000 0
0.680000 0.460000 0
0.700000 0.460000 0
0.720000 0.460000 0
0.740000 0.460000 0
0.760000 0.460000 0
0.780000 0.460000 0
0.800000 0.460000 0
0.820000 0.460000 0
0.840000 0.460000 0
0.860000 0.460000 0
0.880000 0.460000 0
0.900000 0.460000 0
0.920000 0.460000 0
0.940000 0.460000 0
0.960000 0.460000 0
0.980000 0.460000 0
1.000000 0.460000 0
0.500000 0.480000 0
0.520000 0.480000 0
0.540000 0.480000 0
0.560000 0.480000 0
0.580000 0.480000 0
0.600000 0.480000 0
0.620000 0.480000 0
0.640000 0.480000 0
0.660000 0.480000 0
0.680000 0.480000 0
0.700000 0.480000 0
0.720000 0.480000 0
0.740000 0.480000 0
0.760000 0.480000 0
0.780000 0.480000 0
0.800000 0.480000 0
0.820000 0.480000 0
0.840000 0.480000 0
0.860000 0.480000 0
0.880000 0.480000 0
0.900000 0.480000 0
0.920000 0.480000 0
0.940000 0.480000 0
0.960000 0.480000 0
0.980000 0.480000 0
1.000000 0.480000 0
0.500000 0.500000 0
0.520000 0.500000 0
0.540000 0.500000 0
0.560000 0.500000 0
0.580000 0.500000 0
0.600000 0.500000 0
0.620000 0.500000 0
0.640000 0.500000 0
0.660000 0.500000 0
0.680000 0.500000 0
0.700000 0.500000 0
0.720000 0.500000 0
0.740000 0.500000 0
0.760000 0.500000 0
0.780000 0.500000 0
0.800000 0.500000 0
0.820000 0.500000 0
0.840000 0.500000 0
0.860000 0.500000 0
0.880000 0.500000 0
0.900000 0.500000 0
0.920000 0.500000 0
0.940000 0.500000 0
0.960000 0.500000 0
0.980000 0.500000 0
1.000000 0.500000 0
POINT_DATA 676 

VECTORS velocity float
2.000000 2.000000 0
2.000000 2.000000 0
2.000000 2.000000 0
2.000000 2.000000 0
2.000000 2.000000 0
2.000000 2.000000 0
2.000000 2.000000 0
2.000000 2.000000 0
2.000000 2.000000 0
2.000000 2.000000 0
2.000000 2.000000 0
2.000000 2.000000 0
2.000000 2.000000 0
2.000000 2.000000 0
2.000000 2.000000 0
2.000000 2.000000 0
2.000000 2.000000 0
2.000000 2.000000 0
2.000000 2.000000 0
2.000000 2.000000 0
2.000000 2.000000 0
2.000000 2.000000 0
2.000000 2.000000 0
2.000000 2.000000 0
2.000000 2.000000 0
2.000000 2.000000 0
2.000000 2.000000 0
2.000000 2.000000 0
2.000000 2.000000 0
2.000000 2.000000 0
2.000000 2.000000 0
2.000000 2.000000 0
2.000000 2.000000 0
2.000000 2.000000 0
2.000000 2.000000 0
2.000000 2.000000 0
2.000000 2.000000 0
2.000000 2.000000 0
2.000000 2.000000 0
2.000000 2.000000 0
2.000000 2.000000 0
2.000000 2.000000 0
2.000000 2.000000 0
2.000000 2.000000 0
2.000000 2.000000 0
2.000000 2.000000 0
2.000000 2.000000 0
2.000000 2.000000 0
2.000000 2.000000 0
2.000000 2.000000 0
2.000000 2.000000 0
2.000000 2.000000 0
2.000000 2.000000 0
2.000000 2.000000 0
2.000000 2.000000 0
2.000000 2.000000 0
2.000000 2.000000 0
2.000000 2.000000 0
2.000000 2.000000 0
2.000000 2.000000 0
2.000000 2.000000 0
2.000000 2.000000 0
2.000000 2.000000 0
2.000000 2.000000 0
2.000000 2.000000 0
2.000000 2.000000 0
2.000000 2.000000 0
2.000000 2.000000 0
2.000000 2.000000 0
2.000000 2.000000 0
2.000000 2.000000 0
2.000000 2.000000 0
2.000000 2.000000 0
2.000000 2.000000 0
2.000000 2.000000 0
2.000000 2.000000 0
2.000000 2.000000 0
2.000000 2.000000 0
2.000000 2.000000 0
2.000000 2.000000 0
2.000000 2.000000 0
2.000000 2.000000 0
2.000000 2.000000 0
2.000000 2.000000 0
2.000000 2.000000 0
2.000000 2.000000 0
2.000000 2.000000 0
2.000000 2.000000 0
2.000000 2.000000 0
2.000000 2.000000 0
2.000000 2.000000 0
2.000000 2.000000 0
2.000000 2.000000 0
2.000000 2.000000 0
2.000000 2.000000 0
2.000000 2.000000 0
2.000000 2.000000 0
2.000000 2.000000 0
2.000000 2.000000 0
2.000000 2.000000 0
2.000000 2.000000 0
2.000000 2.000000 0
2.000000 2.000000 0
2.000000 2.000000 0
2.000000 2.000000 0
2.000000 2.000000 0
2.000000 2.000000 0
2.000000 2.000000 0
2.000000 2.000000 0
2.000000 2.000000 0
2.000000 2.000000 0
2.000000 2.000000 0
2.000000 2.000000 0
2.000000 2.000000 0
2.000000 2.000000 0
2.000000 2.000000 0
2.000000 2.000000 0
2.000000 2.000000 0
2.000000 2.000000 0
2.000000 2.000000 0
2.000000 2.000000 0
2.000000 2.000000 0
2.000000 2.000000 0
2.000000 2.000000 0
2.000000 2.000000 0
2.000000 2.000000 0
2.000000 2.000000 0
2.000000 2.000000 0
2.000000 2.000000 0
2.000000 2.000000 0
2.000000 2.000000 0
2.000000 2.000000 0
2.000000 2.000000 0
2.000000 2.000000 0
2.000000 2.000000 0
2.000000 2.000000 0
2.000000 2.000000 0
2.000000 2.000000 0
2.000000 2.000000 0
2.000000 2.000000 0
2.000000 2.000000 0
2.000000 2.000000 0
2.000000 2.000000 0
2.000000 2.000000 0
2.000000 2.000000 0
2.000000 2.000000 0
2.000000 2.000000 0
2.000000 2.000000 0
2.000000 2.000000 0
2.000000 2.000000 0
2.000000 2.000000 0
2.000000 2.000000 0
2.000000 2.000000 0
2.000000 2.000000 0
2.000000 2.000000 0
2.000000 2.000000 0
2.000000 2.000000 0
2.000000 2.000000 0
2.000000 2.000000 0
2.000000 2.000000 0
2.000000 2.000000 0
2.000000 2.000000 0
2.000000 2.000000 0
2.000000 2.000000 0
2.000000 2.000000 0
2.000000 2.000000 0
2.000000 2.000000 0
2.000000 2.000000 0
2.000000 2.000000 0
2.000000 2.000000 0
2.000000 2.000000 0
2.000000 2.000000 0
2.000000 2.000000 0
2.000000 2.000000 0
2.000000 2.000000 0
2.000000 2.000000 0
2.000000 2.000000 0
2.000000 2.000000 0
2.000000 2.000000 0
2.000000 2.000000 0
2.000000 2.000000 0
2.000000 2.000000 0
2.000000 2.000000 0
2.000000 2.000000 0
2.000000 2.000000 0
2.000000 2.000000 0
2.000000 2.000000 0
2.000000 2.000000 0
2.000000 2.000000 0
2.000000 2.000000 0
2.000000 2.000000 0
2.000000 2.000000 0
2.000000 2.000000 0
2.000000 2.000000 0
2.000000 2.000000 0
2.000000 2.000000 0
2.000000 2.000000 0
2.000000 2.000000 0
2.000000 2.000000 0
2.000000 2.000000 0
2.000000 2.000000 0
2.000000 2.000000 0
2.000000 2.000000 0
2.000000 2.000000 0
2.000000 2.000000 0
2.000000 2.000000 0
2.000000 2.000000 0
2.000000 2.000000 0
2.000000 2.000000 0
2.000000 2.000000 0
2.000000 2.000000 0
2.000000 2.000000 0
2.000000 2.000000 0
2.000000 2.000000 0
2.000000 2.000000 0
2.000000 2.000000 0
2.000000 2.000000 0
2.000000 2.000000 0
2.000000 2.000000 0
2.000000 2.000000 0
2.000000 2.000000 0
2.000000 2.000000 0
2.000000 2.000000 0
2.000000 2.000000 0
2.000000 2.000000 0
2.000000 2.000000 0
2.000000 2.000000 0
2.000000 2.000000 0
2.000000 2.000000 0
2.000000 2.000000 0
2.000000 2.000000 0
2.000000 2.000000 0
2.000000 2.000000 0
2.000000 2.000000 0
2.000000 2.000000 0
2.000000 2.000000 0
2.000000 2.000000 0
2.000000 2.000000 0
2.000000 2.000000 0
2.000000 2.000000 0
2.000000 2.000000 0
2.000000 2.000000 0
2.000000 2.000000 0
2.000000 2.000000 0
2.000000 2.000000 0
2.000000 2.000000 0
2.000000 2.000000 0
2.000000 2.000000 0
2.000000 2.000000 0
2.000000 2.000000 0
2.000000 2.000000 0
2.000000 2.000000 0
2.000000 2.000000 0
2.000000 2.000000 0
2.000000 2.000000 0
2.000000 2.000000 0
2.000000 2.000000 0
2.000000 2.000000 0
2.000000 2.000000 0
2.000000 2.000000 0
2.000000 2.000000 0
2.000000 2.000000 0
2.000000 2.000000 0
2.000000 2.000000 0
2.000000 2.000000 0
2.000000 2.000000 0
2.000000 2.000000 0
2.000000 2.000000 0
2.000000 2.000000 0
2.000000 2.000000 0
2.000000 2.000000 0
2.000000 2.000000 0
2.000000 2.000000 0
2.000000 2.000000 0
2.000000 2.000000 0
2.000000 2.000000 0
2.000000 2.000000 0
2.000000 2.000000 0
2.000000 2.000000 0
2.000000 2.000000 0
2.000000 2.000000 0
2.000000 2.000000 0
2.000000 2.000000 0
2.000000 2.000000 0
2.000000 2.000000 0
2.000000 2.000000 0
2.000000 2.000000 0
2.000000 2.000000 0
2.000000 2.000000 0
2.000000 2.000000 0
2.000000 2.000000 0
2.000000 2.000000 0
2.000000 2.000000 0
2.000000 2.000000 0
2.000000 2.000000 0
2.000000 2.000000 0
2.000000 2.000000 0
2.000000 2.000000 0
2.000000 2.000000 0
2.000000 2.000000 0
2.000000 2.000000 0
2.000000 2.000000 0
2.000000 2.000000 0
2.000000 2.000000 0
2.000000 2.000000 0
2.000000 2.000000 0
2.000000 2.000000 0
2.000000 2.000000 0
2.000000 2.000000 0
2.000000 2.000000 0
2.000000 2.000000 0
2.000000 2.000000 0
2.000000 2.000000 0
2.000000 2.000000 0
2.000000 2.000000 0
2.000000 2.000000 0
2.000000 2.000000 0
2.000000 2.000000 0
2.000000 2.000000 0
2.000000 2.000000 0
2.000000 2.000000 0
2.000000 2.000000 0
2.000000 2.000000 0
2.000000 2.000000 0
2.000000 2.000000 0
2.000000 2.000000 0
2.000000 2.000000 0
2.000000 2.000000 0
2.000000 2.000000 0
2.000000 2.000000 0
2.000000 2.000000 0
2.000000 2.000000 0
2.000000 2.000000 0
2.000000 2.000000 0
2.000000 2.000000 0
2.000000 2.000000 0
2.000000 2.000000 0
2.000000 2.000000 0
2.000000 2.000000 0
2.000000 2.000000 0
2.000000 2.000000 0
2.000000 2.000000 0
2.000000 2.000000 0
2.000000 2.000000 0
2.000000 2.000000 0
2.000000 2.000000 0
2.000000 2.000000 0
2.000000 2.000000 0
2.000000 2.000000 0
2.000000 2.000000 0
2.000000 2.000000 0
2.000000 2.000000 0
2.000000 2.000000 0
2.000000 2.000000 0
2.000000 2.000000 0
2.000000 2.000000 0
2.000000 2.000000 0
2.000000 2.000000 0
2.000000 2.000000 0
2.000000 2.000000 0
2.000000 2.000000 0
2.000000 2.000000 0
2.000000 2.000000 0
2.000000 2.000000 0
2.000000 2.000000 0
2.000000 2.000000 0
2.000000 2.000000 0
2.000000 2.000000 0
2.000000 2.000000 0
2.000000 2.000000 0
2.000000 2.000000 0
2.000000 2.000000 0
2.000000 2.000000 0
2.000000 2.000000 0
2.000000 2.000000 0
2.000000 2.000000 0
2.000000 2.000000 0
2.000000 2.000000 0
2.000000 2.000000 0
2.000000 2.000000 0
2.000000 2.000000 0
2.000000 2.000000 0
2.000000 2.000000 0
2.000000 2.000000 0
2.000000 2.000000 0
2.000000 2.000000 0
2.000000 2.000000 0
2.000000 2.000000 0
2.000000 2.000000 0
2.000000 2.000000 0
2.000000 2.000000 0
2.000000 2.000000 0
2.000000 2.000000 0
2.000000 2.000000 0
2.000000 2.000000 0
2.000000 2.000000 0
2.000000 2.000000 0
2.000000 2.000000 0
2.000000 2.000000 0
2.000000 2.000000 0
2.000000 2.000000 0
2.000000 2.000000 0
2.000000 2.000000 0
2.000000 2.000000 0
2.000000 2.000000 0
2.000000 2.000000 0
2.000000 2.000000 0
2.000000 2.000000 0
2.000000 2.000000 0
2.000000 2.000000 0
2.000000 2.000000 0
2.000000 2.000000 0
2.000000 2.000000 0
2.000000 2.000000 0
2.000000 2.000000 0
2.000000 2.000000 0
2.000000 2.000000 0
2.000000 2.000000 0
2.000000 2.000000 0
2.000000 2.000000 0
2.000000 2.000000 0
2.000000 2.000000 0
2.000000 2.000000 0
2.000000 2.000000 0
2.000000 2.000000 0
2.000000 2.000000 0
2.000000 2.000000 0
2.000000 2.000000 0
2.000000 2.000000 0
2.000000 2.000000 0
2.000000 2.000000 0
2.000000 2.000000 0
2.000000 2.000000 0
2.000000 2.000000 0
2.000000 2.000000 0
2.000000 2.000000 0
2.000000 2.000000 0
2.000000 2.000000 0
2.000000 2.000000 0
2.000000 2.000000 0
2.000000 2.000000 0
2.000000 2.000000 0
2.000000 2.000000 0
2.000000 2.000000 0
2.000000 2.000000 0
2.000000 2.000000 0
2.000000 2.000000 0
2.000000 2.000000 0
2.000000 2.000000 0
2.000000 2.000000 0
2.000000 2.000000 0
2.000000 2.000000 0
2.000000 2.000000 0
2.000000 2.000000 0
2.000000 2.000000 0
2.000000 2.000000 0
2.000000 2.000000 0
2.000000 2.000000 0
2.000000 2.000000 0
2.000000 2.000000 0
2.000000 2.000000 0
2.000000 2.000000 0
2.000000 2.000000 0
2.000000 2.000000 0
2.000000 2.000000 0
2.000000 2.000000 0
2.000000 2.000000 0
2.000000 2.000000 0
2.000000 2.000000 0
2.000000 2.000000 0
2.000000 2.000000 0
2.000000 2.000000 0
2.000000 2.000000 0
2.000000 2.000000 0
2.000000 2.000000 0
2.000000 2.000000 0
2.000000 2.000000 0
2.000000 2.000000 0
2.000000 2.000000 0
2.000000 2.000000 0
2.000000 2.000000 0
2.000000 2.000000 0
2.000000 2.000000 0
2.000000 2.000000 0
2.000000 2.000000 0
2.000000 2.000000 0
2.000000 2.000000 0
2.000000 2.000000 0
2.000000 2.000000 0
2.000000 2.000000 0
2.000000 2.000000 0
2.000000 2.000000 0
2.000000 2.000000 0
2.000000 2.000000 0
2.000000 2.000000 0
2.000000 2.000000 0
2.000000 2.000000 0
2.000000 2.000000 0
2.000000 2.000000 0
2.000000 2.000000 0
2.000000 2.000000 0
2.000000 2.000000 0
2.000000 2.000000 0
2.000000 2.000000 0
2.000000 2.000000 0
2.000000 2.000000 0
2.000000 2.000000 0
2.000000 2.000000 0
2.000000 2.000000 0
2.000000 2.000000 0
2.000000 2.000000 0
2.000000 2.000000 0
2.000000 2.000000 0
2.000000 2.000000 0
2.000000 2.000000 0
2.000000 2.000000 0
2.000000 2.000000 0
2.000000 2.000000 0
2.000000 2.000000 0
2.000000 2.000000 0
2.000000 2.000000 0
2.000000 2.000000 0
2.000000 2.000000 0
2.000000 2.000000 0
2.000000 2.000000 0
2.000000 2.000000 0
2.000000 2.000000 0
2.000000 2.000000 0
2.000000 2.000000 0
2.000000 2.000000 0
2.000000 2.000000 0
2.000000 2.000000 0
2.000000 2.000000 0
2.000000 2.000000 0
2.000000 2.000000 0
2.000000 2.000000 0
2.000000 2.000000 0
2.000000 2.000000 0
2.000000 2.000000 0
2.000000 2.000000 0
2.000000 2.000000 0
2.000000 2.000000 0
2.000000 2.000000 0
2.000000 2.000000 0
2.000000 2.000000 0
2.000000 2.000000 0
2.000000 2.000000 0
2.000000 2.000000 0
2.000000 2.000000 0
2.000000 2.000000 0
2.000000 2.000000 0
2.000000 2.000000 0
2.000000 2.000000 0
2.000000 2.000000 0
2.000000 2.000000 0
2.000000 2.000000 0
2.000000 2.000000 0
2.000000 2.000000 0
2.000000 2.000000 0
2.000000 2.000000 0
2.000000 2.000000 0
2.000000 2.000000 0
2.000000 2.000000 0
2.000000 2.000000 0
2.000000 2.000000 0
2.000000 2.000000 0
2.000000 2.000000 0
2.000000 2.000000 0
2.000000 2.000000 0
2.000000 2.000000 0
2.000000 2.000000 0
2.000000 2.000000 0
2.000000 2.000000 0
2.000000 2.000000 0
2.000000 2.000000 0
2.000000 2.000000 0
2.000000 2.000000 0
2.000000 2.000000 0
2.000000 2.000000 0
2.000000 2.000000 0
2.000000 2.000000 0
2.000000 2.000000 0
2.000000 2.000000 0
2.000000 2.000000 0
2.000000 2.000000 0
2.000000 2.000000 0
2.000000 2.000000 0
2.000000 2.000000 0
2.000000 2.000000 0
2.000000 2.000000 0
2.000000 2.000000 0
2.000000 2.000000 0
2.000000 2.000000 0
2.000000 2.000000 0
2.000000 2.000000 0
2.000000 2.000000 0
2.000000 2.000000 0
2.000000 2.000000 0
2.000000 2.000000 0
2.000000 2.000000 0
2.000000 2.000000 0
2.000000 2.000000 0
2.000000 2.000000 0
2.000000 2.000000 0
2.000000 2.000000 0
2.000000 2.000000 0
2.000000 2.000000 0
2.000000 2.000000 0
2.000000 2.000000 0
2.000000 2.000000 0
2.000000 2.000000 0
2.000000 2.000000 0
2.000000 2.000000 0
2.000000 2.000000 0
2.000000 2.000000 0
2.000000 2.000000 0
2.000000 2.000000 0
2.000000 2.000000 0
2.000000 2.000000 0
2.000000 2.000000 0
2.000000 2.000000 0
2.000000 2.000000 0
2.000000 2.000000 0
2.000000 2.000000 0
2.000000 2.000000 0
2.000000 2.000000 0
2.000000 2.000000 0
2.000000 2.000000 0
2.000000 2.000000 0
2.000000 2.000000 0
2.000000 2.000000 0
2.000000 2.000000 0
2.000000 2.000000 0
2.000000 2.000000 0
2.000000 2.000000 0
2.000000 2.000000 0
2.000000 2.000000 0
2.000000 2.000000 0
2.000000 2.000000 0
2.000000 2.000000 0
2.000000 2.000000 0
2.000000 2.000000 0
2.000000 2.000000 0
2.000000 2.000000 0
2.000000 2.000000 0
2.000000 2.000000 0
2.000000 2.000000 0
2.000000 2.000000 0
2.000000 2.000000 0
2.000000 2.000000 0
2.000000 2.000000 0
2.000000 2.000000 0
2.000000 2.000000 0
2.000000 2.000000 0
2.000000 2.000000 0
2.000000 2.000000 0
2.000000 2.000000 0
2.000000 2.000000 0
2.000000 2.000000 0
2.000000 2.000000 0
2.000000 2.000000 0
2.000000 2.000000 0
2.000000 2.000000 0
2.000000 2.000000 0
2.000000 2.000000 0
2.000000 2.000000 0
2.000000 2.000000 0
2.000000 2.000000 0
2.000000 2.000000 0
2.000000 2.000000 0
2.000000 2.000000 0
2.000000 2.000000 0
2.000000 2.000000 0
2.000000 2.000000 0
2.000000 2.000000 0
2.000000 2.000000 0

CELL_DATA 625 
SCALARS pressure float 1 
LOOKUP_TABLE default 
2.000000
2.000000
2.000000
2.000000
2.000000
2.000000
2.000000
2.000000
2.000000
2.000000
2.000000
2.000000
2.000000
2.000000
2.000000
2.000000
2.000000
2.000000
2.000000
2.000000
2.000000
2.000000
2.000000
2.000000
2.000000
2.000000
2.000000
2.000000
2.000000
2.000000
2.000000
2.000000
2.000000
2.000000
2.000000
2.000000
2.000000
2.000000
2.000000
2.000000
2.000000
2.000000
2.000000
2.000000
2.000000
2.000000
2.000000
2.000000
2.000000
2.000000
2.000000
2.000000
2.000000
2.000000
2.000000
2.000000
2.000000
2.000000
2.000000
2.000000
2.000000
2.000000
2.000000
2.000000
2.000000
2.000000
2.000000
2.000000
2.000000
2.000000
2.000000
2.000000
2.000000
2.000000
2.000000
2.000000
2.000000
2.000000
2.000000
2.000000
2.000000
2.000000
2.000000
2.000000
2.000000
2.000000
2.000000
2.000000
2.000000
2.000000
2.000000
2.000000
2.000000
2.000000
2.000000
2.000000
2.000000
2.000000
2.000000
2.000000
2.000000
2.000000
2.000000
2.000000
2.000000
2.000000
2.000000
2.000000
2.000000
2.000000
2.000000
2.000000
2.000000
2.000000
2.000000
2.000000
2.000000
2.000000
2.000000
2.000000
2.000000
2.000000
2.000000
2.000000
2.000000
2.000000
2.000000
2.000000
2.000000
2.000000
2.000000
2.000000
2.000000
2.000000
2.000000
2.000000
2.000000
2.000000
2.000000
2.000000
2.000000
2.000000
2.000000
2.000000
2.000000
2.000000
2.000000
2.000000
2.000000
2.000000
2.000000
2.000000
2.000000
2.000000
2.000000
2.000000
2.000000
2.000000
2.000000
2.000000
2.000000
2.000000
2.000000
2.000000
2.000000
2.000000
2.000000
2.000000
2.000000
2.000000
2.000000
2.000000
2.000000
2.000000
2.000000
2.000000
2.000000
2.000000
2.000000
2.000000
2.000000
2.000000
2.000000
2.000000
2.000000
2.000000
2.000000
2.000000
2.000000
2.000000
2.000000
2.000000
2.000000
2.000000
2.000000
2.000000
2.000000
2.000000
2.000000
2.000000
2.000000
2.000000
2.000000
2.000000
2.000000
2.000000
2.000000
2.000000
2.000000
2.000000
2.000000
2.000000
2.000000
2.000000
2.000000
2.000000
2.000000
2.000000
2.000000
2.000000
2.000000
2.000000
2.000000
2.000000
2.000000
2.000000
2.000000
2.000000
2.000000
2.000000
2.000000
2.000000
2.000000
2.000000
2.000000
2.000000
2.000000
2.000000
2.000000
2.000000
2.000000
2.000000
2.000000
2.000000
2.000000
2.000000
2.000000
2.000000
2.000000
2.000000
2.000000
2.000000
2.000000
2.000000
2.000000
2.000000
2.000000
2.000000
2.000000
2.000000
2.000000
2.000000
2.000000
2.000000
2.000000
2.000000
2.000000
2.000000
2.000000
2.000000
2.000000
2.000000
2.000000
2.000000
2.000000
2.000000
2.000000
2.000000
2.000000
2.000000
2.000000
2.000000
2.000000
2.000000
2.000000
2.000000
2.000000
2.000000
2.000000
2.000000
2.000000
2.000000
2.000000
2.000000
2.000000
2.000000
2.000000
2.000000
2.000000