# vtk DataFile Version 2.0
generated by CFD-lab course output (written by Tobias Neckel) 
ASCII

DATASET STRUCTURED_GRID
DIMENSIONS  26 26 1 
POINTS 676 float

0.000000 0.500000 0
0.020000 0.500000 0
0.040000 0.500000 0
0.060000 0.500000 0
0.080000 0.500000 0
0.100000 0.500000 0
0.120000 0.500000 0
0.140000 0.500000 0
0.160000 0.500000 0
0.180000 0.500000 0
0.200000 0.500000 0
0.220000 0.500000 0
0.240000 0.500000 0
0.260000 0.500000 0
0.280000 0.500000 0
0.300000 0.500000 0
0.320000 0.500000 0
0.340000 0.500000 0
0.360000 0.500000 0
0.380000 0.500000 0
0.400000 0.500000 0
0.420000 0.500000 0
0.440000 0.500000 0
0.460000 0.500000 0
0.480000 0.500000 0
0.500000 0.500000 0
0.000000 0.520000 0
0.020000 0.520000 0
0.040000 0.520000 0
0.060000 0.520000 0
0.080000 0.520000 0
0.100000 0.520000 0
0.120000 0.520000 0
0.140000 0.520000 0
0.160000 0.520000 0
0.180000 0.520000 0
0.200000 0.520000 0
0.220000 0.520000 0
0.240000 0.520000 0
0.260000 0.520000 0
0.280000 0.520000 0
0.300000 0.520000 0
0.320000 0.520000 0
0.340000 0.520000 0
0.360000 0.520000 0
0.380000 0.520000 0
0.400000 0.520000 0
0.420000 0.520000 0
0.440000 0.520000 0
0.460000 0.520000 0
0.480000 0.520000 0
0.500000 0.520000 0
0.000000 0.540000 0
0.020000 0.540000 0
0.040000 0.540000 0
0.060000 0.540000 0
0.080000 0.540000 0
0.100000 0.540000 0
0.120000 0.540000 0
0.140000 0.540000 0
0.160000 0.540000 0
0.180000 0.540000 0
0.200000 0.540000 0
0.220000 0.540000 0
0.240000 0.540000 0
0.260000 0.540000 0
0.280000 0.540000 0
0.300000 0.540000 0
0.320000 0.540000 0
0.340000 0.540000 0
0.360000 0.540000 0
0.380000 0.540000 0
0.400000 0.540000 0
0.420000 0.540000 0
0.440000 0.540000 0
0.460000 0.540000 0
0.480000 0.540000 0
0.500000 0.540000 0
0.000000 0.560000 0
0.020000 0.560000 0
0.040000 0.560000 0
0.060000 0.560000 0
0.080000 0.560000 0
0.100000 0.560000 0
0.120000 0.560000 0
0.140000 0.560000 0
0.160000 0.560000 0
0.180000 0.560000 0
0.200000 0.560000 0
0.220000 0.560000 0
0.240000 0.560000 0
0.260000 0.560000 0
0.280000 0.560000 0
0.300000 0.560000 0
0.320000 0.560000 0
0.340000 0.560000 0
0.360000 0.560000 0
0.380000 0.560000 0
0.400000 0.560000 0
0.420000 0.560000 0
0.440000 0.560000 0
0.460000 0.560000 0
0.480000 0.560000 0
0.500000 0.560000 0
0.000000 0.580000 0
0.020000 0.580000 0
0.040000 0.580000 0
0.060000 0.580000 0
0.080000 0.580000 0
0.100000 0.580000 0
0.120000 0.580000 0
0.140000 0.580000 0
0.160000 0.580000 0
0.180000 0.580000 0
0.200000 0.580000 0
0.220000 0.580000 0
0.240000 0.580000 0
0.260000 0.580000 0
0.280000 0.580000 0
0.300000 0.580000 0
0.320000 0.580000 0
0.340000 0.580000 0
0.360000 0.580000 0
0.380000 0.580000 0
0.400000 0.580000 0
0.420000 0.580000 0
0.440000 0.580000 0
0.460000 0.580000 0
0.480000 0.580000 0
0.500000 0.580000 0
0.000000 0.600000 0
0.020000 0.600000 0
0.040000 0.600000 0
0.060000 0.600000 0
0.080000 0.600000 0
0.100000 0.600000 0
0.120000 0.600000 0
0.140000 0.600000 0
0.160000 0.600000 0
0.180000 0.600000 0
0.200000 0.600000 0
0.220000 0.600000 0
0.240000 0.600000 0
0.260000 0.600000 0
0.280000 0.600000 0
0.300000 0.600000 0
0.320000 0.600000 0
0.340000 0.600000 0
0.360000 0.600000 0
0.380000 0.600000 0
0.400000 0.600000 0
0.420000 0.600000 0
0.440000 0.600000 0
0.460000 0.600000 0
0.480000 0.600000 0
0.500000 0.600000 0
0.000000 0.620000 0
0.020000 0.620000 0
0.040000 0.620000 0
0.060000 0.620000 0
0.080000 0.620000 0
0.100000 0.620000 0
0.120000 0.620000 0
0.140000 0.620000 0
0.160000 0.620000 0
0.180000 0.620000 0
0.200000 0.620000 0
0.220000 0.620000 0
0.240000 0.620000 0
0.260000 0.620000 0
0.280000 0.620000 0
0.300000 0.620000 0
0.320000 0.620000 0
0.340000 0.620000 0
0.360000 0.620000 0
0.380000 0.620000 0
0.400000 0.620000 0
0.420000 0.620000 0
0.440000 0.620000 0
0.460000 0.620000 0
0.480000 0.620000 0
0.500000 0.620000 0
0.000000 0.640000 0
0.020000 0.640000 0
0.040000 0.640000 0
0.060000 0.640000 0
0.080000 0.640000 0
0.100000 0.640000 0
0.120000 0.640000 0
0.140000 0.640000 0
0.160000 0.640000 0
0.180000 0.640000 0
0.200000 0.640000 0
0.220000 0.640000 0
0.240000 0.640000 0
0.260000 0.640000 0
0.280000 0.640000 0
0.300000 0.640000 0
0.320000 0.640000 0
0.340000 0.640000 0
0.360000 0.640000 0
0.380000 0.640000 0
0.400000 0.640000 0
0.420000 0.640000 0
0.440000 0.640000 0
0.460000 0.640000 0
0.480000 0.640000 0
0.500000 0.640000 0
0.000000 0.660000 0
0.020000 0.660000 0
0.040000 0.660000 0
0.060000 0.660000 0
0.080000 0.660000 0
0.100000 0.660000 0
0.120000 0.660000 0
0.140000 0.660000 0
0.160000 0.660000 0
0.180000 0.660000 0
0.200000 0.660000 0
0.220000 0.660000 0
0.240000 0.660000 0
0.260000 0.660000 0
0.280000 0.660000 0
0.300000 0.660000 0
0.320000 0.660000 0
0.340000 0.660000 0
0.360000 0.660000 0
0.380000 0.660000 0
0.400000 0.660000 0
0.420000 0.660000 0
0.440000 0.660000 0
0.460000 0.660000 0
0.480000 0.660000 0
0.500000 0.660000 0
0.000000 0.680000 0
0.020000 0.680000 0
0.040000 0.680000 0
0.060000 0.680000 0
0.080000 0.680000 0
0.100000 0.680000 0
0.120000 0.680000 0
0.140000 0.680000 0
0.160000 0.680000 0
0.180000 0.680000 0
0.200000 0.680000 0
0.220000 0.680000 0
0.240000 0.680000 0
0.260000 0.680000 0
0.280000 0.680000 0
0.300000 0.680000 0
0.320000 0.680000 0
0.340000 0.680000 0
0.360000 0.680000 0
0.380000 0.680000 0
0.400000 0.680000 0
0.420000 0.680000 0
0.440000 0.680000 0
0.460000 0.680000 0
0.480000 0.680000 0
0.500000 0.680000 0
0.000000 0.700000 0
0.020000 0.700000 0
0.040000 0.700000 0
0.060000 0.700000 0
0.080000 0.700000 0
0.100000 0.700000 0
0.120000 0.700000 0
0.140000 0.700000 0
0.160000 0.700000 0
0.180000 0.700000 0
0.200000 0.700000 0
0.220000 0.700000 0
0.240000 0.700000 0
0.260000 0.700000 0
0.280000 0.700000 0
0.300000 0.700000 0
0.320000 0.700000 0
0.340000 0.700000 0
0.360000 0.700000 0
0.380000 0.700000 0
0.400000 0.700000 0
0.420000 0.700000 0
0.440000 0.700000 0
0.460000 0.700000 0
0.480000 0.700000 0
0.500000 0.700000 0
0.000000 0.720000 0
0.020000 0.720000 0
0.040000 0.720000 0
0.060000 0.720000 0
0.080000 0.720000 0
0.100000 0.720000 0
0.120000 0.720000 0
0.140000 0.720000 0
0.160000 0.720000 0
0.180000 0.720000 0
0.200000 0.720000 0
0.220000 0.720000 0
0.240000 0.720000 0
0.260000 0.720000 0
0.280000 0.720000 0
0.300000 0.720000 0
0.320000 0.720000 0
0.340000 0.720000 0
0.360000 0.720000 0
0.380000 0.720000 0
0.400000 0.720000 0
0.420000 0.720000 0
0.440000 0.720000 0
0.460000 0.720000 0
0.480000 0.720000 0
0.500000 0.720000 0
0.000000 0.740000 0
0.020000 0.740000 0
0.040000 0.740000 0
0.060000 0.740000 0
0.080000 0.740000 0
0.100000 0.740000 0
0.120000 0.740000 0
0.140000 0.740000 0
0.160000 0.740000 0
0.180000 0.740000 0
0.200000 0.740000 0
0.220000 0.740000 0
0.240000 0.740000 0
0.260000 0.740000 0
0.280000 0.740000 0
0.300000 0.740000 0
0.320000 0.740000 0
0.340000 0.740000 0
0.360000 0.740000 0
0.380000 0.740000 0
0.400000 0.740000 0
0.420000 0.740000 0
0.440000 0.740000 0
0.460000 0.740000 0
0.480000 0.740000 0
0.500000 0.740000 0
0.000000 0.760000 0
0.020000 0.760000 0
0.040000 0.760000 0
0.060000 0.760000 0
0.080000 0.760000 0
0.100000 0.760000 0
0.120000 0.760000 0
0.140000 0.760000 0
0.160000 0.760000 0
0.180000 0.760000 0
0.200000 0.760000 0
0.220000 0.760000 0
0.240000 0.760000 0
0.260000 0.760000 0
0.280000 0.760000 0
0.300000 0.760000 0
0.320000 0.760000 0
0.340000 0.760000 0
0.360000 0.760000 0
0.380000 0.760000 0
0.400000 0.760000 0
0.420000 0.760000 0
0.440000 0.760000 0
0.460000 0.760000 0
0.480000 0.760000 0
0.500000 0.760000 0
0.000000 0.780000 0
0.020000 0.780000 0
0.040000 0.780000 0
0.060000 0.780000 0
0.080000 0.780000 0
0.100000 0.780000 0
0.120000 0.780000 0
0.140000 0.780000 0
0.160000 0.780000 0
0.180000 0.780000 0
0.200000 0.780000 0
0.220000 0.780000 0
0.240000 0.780000 0
0.260000 0.780000 0
0.280000 0.780000 0
0.300000 0.780000 0
0.320000 0.780000 0
0.340000 0.780000 0
0.360000 0.780000 0
0.380000 0.780000 0
0.400000 0.780000 0
0.420000 0.780000 0
0.440000 0.780000 0
0.460000 0.780000 0
0.480000 0.780000 0
0.500000 0.780000 0
0.000000 0.800000 0
0.020000 0.800000 0
0.040000 0.800000 0
0.060000 0.800000 0
0.080000 0.800000 0
0.100000 0.800000 0
0.120000 0.800000 0
0.140000 0.800000 0
0.160000 0.800000 0
0.180000 0.800000 0
0.200000 0.800000 0
0.220000 0.800000 0
0.240000 0.800000 0
0.260000 0.800000 0
0.280000 0.800000 0
0.300000 0.800000 0
0.320000 0.800000 0
0.340000 0.800000 0
0.360000 0.800000 0
0.380000 0.800000 0
0.400000 0.800000 0
0.420000 0.800000 0
0.440000 0.800000 0
0.460000 0.800000 0
0.480000 0.800000 0
0.500000 0.800000 0
0.000000 0.820000 0
0.020000 0.820000 0
0.040000 0.820000 0
0.060000 0.820000 0
0.080000 0.820000 0
0.100000 0.820000 0
0.120000 0.820000 0
0.140000 0.820000 0
0.160000 0.820000 0
0.180000 0.820000 0
0.200000 0.820000 0
0.220000 0.820000 0
0.240000 0.820000 0
0.260000 0.820000 0
0.280000 0.820000 0
0.300000 0.820000 0
0.320000 0.820000 0
0.340000 0.820000 0
0.360000 0.820000 0
0.380000 0.820000 0
0.400000 0.820000 0
0.420000 0.820000 0
0.440000 0.820000 0
0.460000 0.820000 0
0.480000 0.820000 0
0.500000 0.820000 0
0.000000 0.840000 0
0.020000 0.840000 0
0.040000 0.840000 0
0.060000 0.840000 0
0.080000 0.840000 0
0.100000 0.840000 0
0.120000 0.840000 0
0.140000 0.840000 0
0.160000 0.840000 0
0.180000 0.840000 0
0.200000 0.840000 0
0.220000 0.840000 0
0.240000 0.840000 0
0.260000 0.840000 0
0.280000 0.840000 0
0.300000 0.840000 0
0.320000 0.840000 0
0.340000 0.840000 0
0.360000 0.840000 0
0.380000 0.840000 0
0.400000 0.840000 0
0.420000 0.840000 0
0.440000 0.840000 0
0.460000 0.840000 0
0.480000 0.840000 0
0.500000 0.840000 0
0.000000 0.860000 0
0.020000 0.860000 0
0.040000 0.860000 0
0.060000 0.860000 0
0.080000 0.860000 0
0.100000 0.860000 0
0.120000 0.860000 0
0.140000 0.860000 0
0.160000 0.860000 0
0.180000 0.860000 0
0.200000 0.860000 0
0.220000 0.860000 0
0.240000 0.860000 0
0.260000 0.860000 0
0.280000 0.860000 0
0.300000 0.860000 0
0.320000 0.860000 0
0.340000 0.860000 0
0.360000 0.860000 0
0.380000 0.860000 0
0.400000 0.860000 0
0.420000 0.860000 0
0.440000 0.860000 0
0.460000 0.860000 0
0.480000 0.860000 0
0.500000 0.860000 0
0.000000 0.880000 0
0.020000 0.880000 0
0.040000 0.880000 0
0.060000 0.880000 0
0.080000 0.880000 0
0.100000 0.880000 0
0.120000 0.880000 0
0.140000 0.880000 0
0.160000 0.880000 0
0.180000 0.880000 0
0.200000 0.880000 0
0.220000 0.880000 0
0.240000 0.880000 0
0.260000 0.880000 0
0.280000 0.880000 0
0.300000 0.880000 0
0.320000 0.880000 0
0.340000 0.880000 0
0.360000 0.880000 0
0.380000 0.880000 0
0.400000 0.880000 0
0.420000 0.880000 0
0.440000 0.880000 0
0.460000 0.880000 0
0.480000 0.880000 0
0.500000 0.880000 0
0.000000 0.900000 0
0.020000 0.900000 0
0.040000 0.900000 0
0.060000 0.900000 0
0.080000 0.900000 0
0.100000 0.900000 0
0.120000 0.900000 0
0.140000 0.900000 0
0.160000 0.900000 0
0.180000 0.900000 0
0.200000 0.900000 0
0.220000 0.900000 0
0.240000 0.900000 0
0.260000 0.900000 0
0.280000 0.900000 0
0.300000 0.900000 0
0.320000 0.900000 0
0.340000 0.900000 0
0.360000 0.900000 0
0.380000 0.900000 0
0.400000 0.900000 0
0.420000 0.900000 0
0.440000 0.900000 0
0.460000 0.900000 0
0.480000 0.900000 0
0.500000 0.900000 0
0.000000 0.920000 0
0.020000 0.920000 0
0.040000 0.920000 0
0.060000 0.920000 0
0.080000 0.920000 0
0.100000 0.920000 0
0.120000 0.920000 0
0.140000 0.920000 0
0.160000 0.920000 0
0.180000 0.920000 0
0.200000 0.920000 0
0.220000 0.920000 0
0.240000 0.920000 0
0.260000 0.920000 0
0.280000 0.920000 0
0.300000 0.920000 0
0.320000 0.920000 0
0.340000 0.920000 0
0.360000 0.920000 0
0.380000 0.920000 0
0.400000 0.920000 0
0.420000 0.920000 0
0.440000 0.920000 0
0.460000 0.920000 0
0.480000 0.920000 0
0.500000 0.920000 0
0.000000 0.940000 0
0.020000 0.940000 0
0.040000 0.940000 0
0.060000 0.940000 0
0.080000 0.940000 0
0.100000 0.940000 0
0.120000 0.940000 0
0.140000 0.940000 0
0.160000 0.940000 0
0.180000 0.940000 0
0.200000 0.940000 0
0.220000 0.940000 0
0.240000 0.940000 0
0.260000 0.940000 0
0.280000 0.940000 0
0.300000 0.940000 0
0.320000 0.940000 0
0.340000 0.940000 0
0.360000 0.940000 0
0.380000 0.940000 0
0.400000 0.940000 0
0.420000 0.940000 0
0.440000 0.940000 0
0.460000 0.940000 0
0.480000 0.940000 0
0.500000 0.940000 0
0.000000 0.960000 0
0.020000 0.960000 0
0.040000 0.960000 0
0.060000 0.960000 0
0.080000 0.960000 0
0.100000 0.960000 0
0.120000 0.960000 0
0.140000 0.960000 0
0.160000 0.960000 0
0.180000 0.960000 0
0.200000 0.960000 0
0.220000 0.960000 0
0.240000 0.960000 0
0.260000 0.960000 0
0.280000 0.960000 0
0.300000 0.960000 0
0.320000 0.960000 0
0.340000 0.960000 0
0.360000 0.960000 0
0.380000 0.960000 0
0.400000 0.960000 0
0.420000 0.960000 0
0.440000 0.960000 0
0.460000 0.960000 0
0.480000 0.960000 0
0.500000 0.960000 0
0.000000 0.980000 0
0.020000 0.980000 0
0.040000 0.980000 0
0.060000 0.980000 0
0.080000 0.980000 0
0.100000 0.980000 0
0.120000 0.980000 0
0.140000 0.980000 0
0.160000 0.980000 0
0.180000 0.980000 0
0.200000 0.980000 0
0.220000 0.980000 0
0.240000 0.980000 0
0.260000 0.980000 0
0.280000 0.980000 0
0.300000 0.980000 0
0.320000 0.980000 0
0.340000 0.980000 0
0.360000 0.980000 0
0.380000 0.980000 0
0.400000 0.980000 0
0.420000 0.980000 0
0.440000 0.980000 0
0.460000 0.980000 0
0.480000 0.980000 0
0.500000 0.980000 0
0.000000 1.000000 0
0.020000 1.000000 0
0.040000 1.000000 0
0.060000 1.000000 0
0.080000 1.000000 0
0.100000 1.000000 0
0.120000 1.000000 0
0.140000 1.000000 0
0.160000 1.000000 0
0.180000 1.000000 0
0.200000 1.000000 0
0.220000 1.000000 0
0.240000 1.000000 0
0.260000 1.000000 0
0.280000 1.000000 0
0.300000 1.000000 0
0.320000 1.000000 0
0.340000 1.000000 0
0.360000 1.000000 0
0.380000 1.000000 0
0.400000 1.000000 0
0.420000 1.000000 0
0.440000 1.000000 0
0.460000 1.000000 0
0.480000 1.000000 0
0.500000 1.000000 0
POINT_DATA 676 

VECTORS velocity float
1.000000 1.000000 0
1.000000 1.000000 0
1.000000 1.000000 0
1.000000 1.000000 0
1.000000 1.000000 0
1.000000 1.000000 0
1.000000 1.000000 0
1.000000 1.000000 0
1.000000 1.000000 0
1.000000 1.000000 0
1.000000 1.000000 0
1.000000 1.000000 0
1.000000 1.000000 0
1.000000 1.000000 0
1.000000 1.000000 0
1.000000 1.000000 0
1.000000 1.000000 0
1.000000 1.000000 0
1.000000 1.000000 0
1.000000 1.000000 0
1.000000 1.000000 0
1.000000 1.000000 0
1.000000 1.000000 0
1.000000 1.000000 0
1.000000 1.000000 0
1.000000 1.000000 0
1.000000 1.000000 0
1.000000 1.000000 0
1.000000 1.000000 0
1.000000 1.000000 0
1.000000 1.000000 0
1.000000 1.000000 0
1.000000 1.000000 0
1.000000 1.000000 0
1.000000 1.000000 0
1.000000 1.000000 0
1.000000 1.000000 0
1.000000 1.000000 0
1.000000 1.000000 0
1.000000 1.000000 0
1.000000 1.000000 0
1.000000 1.000000 0
1.000000 1.000000 0
1.000000 1.000000 0
1.000000 1.000000 0
1.000000 1.000000 0
1.000000 1.000000 0
1.000000 1.000000 0
1.000000 1.000000 0
1.000000 1.000000 0
1.000000 1.000000 0
1.000000 1.000000 0
1.000000 1.000000 0
1.000000 1.000000 0
1.000000 1.000000 0
1.000000 1.000000 0
1.000000 1.000000 0
1.000000 1.000000 0
1.000000 1.000000 0
1.000000 1.000000 0
1.000000 1.000000 0
1.000000 1.000000 0
1.000000 1.000000 0
1.000000 1.000000 0
1.000000 1.000000 0
1.000000 1.000000 0
1.000000 1.000000 0
1.000000 1.000000 0
1.000000 1.000000 0
1.000000 1.000000 0
1.000000 1.000000 0
1.000000 1.000000 0
1.000000 1.000000 0
1.000000 1.000000 0
1.000000 1.000000 0
1.000000 1.000000 0
1.000000 1.000000 0
1.000000 1.000000 0
1.000000 1.000000 0
1.000000 1.000000 0
1.000000 1.000000 0
1.000000 1.000000 0
1.000000 1.000000 0
1.000000 1.000000 0
1.000000 1.000000 0
1.000000 1.000000 0
1.000000 1.000000 0
1.000000 1.000000 0
1.000000 1.000000 0
1.000000 1.000000 0
1.000000 1.000000 0
1.000000 1.000000 0
1.000000 1.000000 0
1.000000 1.000000 0
1.000000 1.000000 0
1.000000 1.000000 0
1.000000 1.000000 0
1.000000 1.000000 0
1.000000 1.000000 0
1.000000 1.000000 0
1.000000 1.000000 0
1.000000 1.000000 0
1.000000 1.000000 0
1.000000 1.000000 0
1.000000 1.000000 0
1.000000 1.000000 0
1.000000 1.000000 0
1.000000 1.000000 0
1.000000 1.000000 0
1.000000 1.000000 0
1.000000 1.000000 0
1.000000 1.000000 0
1.000000 1.000000 0
1.000000 1.000000 0
1.000000 1.000000 0
1.000000 1.000000 0
1.000000 1.000000 0
1.000000 1.000000 0
1.000000 1.000000 0
1.000000 1.000000 0
1.000000 1.000000 0
1.000000 1.000000 0
1.000000 1.000000 0
1.000000 1.000000 0
1.000000 1.000000 0
1.000000 1.000000 0
1.000000 1.000000 0
1.000000 1.000000 0
1.000000 1.000000 0
1.000000 1.000000 0
1.000000 1.000000 0
1.000000 1.000000 0
1.000000 1.000000 0
1.000000 1.000000 0
1.000000 1.000000 0
1.000000 1.000000 0
1.000000 1.000000 0
1.000000 1.000000 0
1.000000 1.000000 0
1.000000 1.000000 0
1.000000 1.000000 0
1.000000 1.000000 0
1.000000 1.000000 0
1.000000 1.000000 0
1.000000 1.000000 0
1.000000 1.000000 0
1.000000 1.000000 0
1.000000 1.000000 0
1.000000 1.000000 0
1.000000 1.000000 0
1.000000 1.000000 0
1.000000 1.000000 0
1.000000 1.000000 0
1.000000 1.000000 0
1.000000 1.000000 0
1.000000 1.000000 0
1.000000 1.000000 0
1.000000 1.000000 0
1.000000 1.000000 0
1.000000 1.000000 0
1.000000 1.000000 0
1.000000 1.000000 0
1.000000 1.000000 0
1.000000 1.000000 0
1.000000 1.000000 0
1.000000 1.000000 0
1.000000 1.000000 0
1.000000 1.000000 0
1.000000 1.000000 0
1.000000 1.000000 0
1.000000 1.000000 0
1.000000 1.000000 0
1.000000 1.000000 0
1.000000 1.000000 0
1.000000 1.000000 0
1.000000 1.000000 0
1.000000 1.000000 0
1.000000 1.000000 0
1.000000 1.000000 0
1.000000 1.000000 0
1.000000 1.000000 0
1.000000 1.000000 0
1.000000 1.000000 0
1.000000 1.000000 0
1.000000 1.000000 0
1.000000 1.000000 0
1.000000 1.000000 0
1.000000 1.000000 0
1.000000 1.000000 0
1.000000 1.000000 0
1.000000 1.000000 0
1.000000 1.000000 0
1.000000 1.000000 0
1.000000 1.000000 0
1.000000 1.000000 0
1.000000 1.000000 0
1.000000 1.000000 0
1.000000 1.000000 0
1.000000 1.000000 0
1.000000 1.000000 0
1.000000 1.000000 0
1.000000 1.000000 0
1.000000 1.000000 0
1.000000 1.000000 0
1.000000 1.000000 0
1.000000 1.000000 0
1.000000 1.000000 0
1.000000 1.000000 0
1.000000 1.000000 0
1.000000 1.000000 0
1.000000 1.000000 0
1.000000 1.000000 0
1.000000 1.000000 0
1.000000 1.000000 0
1.000000 1.000000 0
1.000000 1.000000 0
1.000000 1.000000 0
1.000000 1.000000 0
1.000000 1.000000 0
1.000000 1.000000 0
1.000000 1.000000 0
1.000000 1.000000 0
1.000000 1.000000 0
1.000000 1.000000 0
1.000000 1.000000 0
1.000000 1.000000 0
1.000000 1.000000 0
1.000000 1.000000 0
1.000000 1.000000 0
1.000000 1.000000 0
1.000000 1.000000 0
1.000000 1.000000 0
1.000000 1.000000 0
1.000000 1.000000 0
1.000000 1.000000 0
1.000000 1.000000 0
1.000000 1.000000 0
1.000000 1.000000 0
1.000000 1.000000 0
1.000000 1.000000 0
1.000000 1.000000 0
1.000000 1.000000 0
1.000000 1.000000 0
1.000000 1.000000 0
1.000000 1.000000 0
1.000000 1.000000 0
1.000000 1.000000 0
1.000000 1.000000 0
1.000000 1.000000 0
1.000000 1.000000 0
1.000000 1.000000 0
1.000000 1.000000 0
1.000000 1.000000 0
1.000000 1.000000 0
1.000000 1.000000 0
1.000000 1.000000 0
1.000000 1.000000 0
1.000000 1.000000 0
1.000000 1.000000 0
1.000000 1.000000 0
1.000000 1.000000 0
1.000000 1.000000 0
1.000000 1.000000 0
1.000000 1.000000 0
1.000000 1.000000 0
1.000000 1.000000 0
1.000000 1.000000 0
1.000000 1.000000 0
1.000000 1.000000 0
1.000000 1.000000 0
1.000000 1.000000 0
1.000000 1.000000 0
1.000000 1.000000 0
1.000000 1.000000 0
1.000000 1.000000 0
1.000000 1.000000 0
1.000000 1.000000 0
1.000000 1.000000 0
1.000000 1.000000 0
1.000000 1.000000 0
1.000000 1.000000 0
1.000000 1.000000 0
1.000000 1.000000 0
1.000000 1.000000 0
1.000000 1.000000 0
1.000000 1.000000 0
1.000000 1.000000 0
1.000000 1.000000 0
1.000000 1.000000 0
1.000000 1.000000 0
1.000000 1.000000 0
1.000000 1.000000 0
1.000000 1.000000 0
1.000000 1.000000 0
1.000000 1.000000 0
1.000000 1.000000 0
1.000000 1.000000 0
1.000000 1.000000 0
1.000000 1.000000 0
1.000000 1.000000 0
1.000000 1.000000 0
1.000000 1.000000 0
1.000000 1.000000 0
1.000000 1.000000 0
1.000000 1.000000 0
1.000000 1.000000 0
1.000000 1.000000 0
1.000000 1.000000 0
1.000000 1.000000 0
1.000000 1.000000 0
1.000000 1.000000 0
1.000000 1.000000 0
1.000000 1.000000 0
1.000000 1.000000 0
1.000000 1.000000 0
1.000000 1.000000 0
1.000000 1.000000 0
1.000000 1.000000 0
1.000000 1.000000 0
1.000000 1.000000 0
1.000000 1.000000 0
1.000000 1.000000 0
1.000000 1.000000 0
1.000000 1.000000 0
1.000000 1.000000 0
1.000000 1.000000 0
1.000000 1.000000 0
1.000000 1.000000 0
1.000000 1.000000 0
1.000000 1.000000 0
1.000000 1.000000 0
1.000000 1.000000 0
1.000000 1.000000 0
1.000000 1.000000 0
1.000000 1.000000 0
1.000000 1.000000 0
1.000000 1.000000 0
1.000000 1.000000 0
1.000000 1.000000 0
1.000000 1.000000 0
1.000000 1.000000 0
1.000000 1.000000 0
1.000000 1.000000 0
1.000000 1.000000 0
1.000000 1.000000 0
1.000000 1.000000 0
1.000000 1.000000 0
1.000000 1.000000 0
1.000000 1.000000 0
1.000000 1.000000 0
1.000000 1.000000 0
1.000000 1.000000 0
1.000000 1.000000 0
1.000000 1.000000 0
1.000000 1.000000 0
1.000000 1.000000 0
1.000000 1.000000 0
1.000000 1.000000 0
1.000000 1.000000 0
1.000000 1.000000 0
1.000000 1.000000 0
1.000000 1.000000 0
1.000000 1.000000 0
1.000000 1.000000 0
1.000000 1.000000 0
1.000000 1.000000 0
1.000000 1.000000 0
1.000000 1.000000 0
1.000000 1.000000 0
1.000000 1.000000 0
1.000000 1.000000 0
1.000000 1.000000 0
1.000000 1.000000 0
1.000000 1.000000 0
1.000000 1.000000 0
1.000000 1.000000 0
1.000000 1.000000 0
1.000000 1.000000 0
1.000000 1.000000 0
1.000000 1.000000 0
1.000000 1.000000 0
1.000000 1.000000 0
1.000000 1.000000 0
1.000000 1.000000 0
1.000000 1.000000 0
1.000000 1.000000 0
1.000000 1.000000 0
1.000000 1.000000 0
1.000000 1.000000 0
1.000000 1.000000 0
1.000000 1.000000 0
1.000000 1.000000 0
1.000000 1.000000 0
1.000000 1.000000 0
1.000000 1.000000 0
1.000000 1.000000 0
1.000000 1.000000 0
1.000000 1.000000 0
1.000000 1.000000 0
1.000000 1.000000 0
1.000000 1.000000 0
1.000000 1.000000 0
1.000000 1.000000 0
1.000000 1.000000 0
1.000000 1.000000 0
1.000000 1.000000 0
1.000000 1.000000 0
1.000000 1.000000 0
1.000000 1.000000 0
1.000000 1.000000 0
1.000000 1.000000 0
1.000000 1.000000 0
1.000000 1.000000 0
1.000000 1.000000 0
1.000000 1.000000 0
1.000000 1.000000 0
1.000000 1.000000 0
1.000000 1.000000 0
1.000000 1.000000 0
1.000000 1.000000 0
1.000000 1.000000 0
1.000000 1.000000 0
1.000000 1.000000 0
1.000000 1.000000 0
1.000000 1.000000 0
1.000000 1.000000 0
1.000000 1.000000 0
1.000000 1.000000 0
1.000000 1.000000 0
1.000000 1.000000 0
1.000000 1.000000 0
1.000000 1.000000 0
1.000000 1.000000 0
1.000000 1.000000 0
1.000000 1.000000 0
1.000000 1.000000 0
1.000000 1.000000 0
1.000000 1.000000 0
1.000000 1.000000 0
1.000000 1.000000 0
1.000000 1.000000 0
1.000000 1.000000 0
1.000000 1.000000 0
1.000000 1.000000 0
1.000000 1.000000 0
1.000000 1.000000 0
1.000000 1.000000 0
1.000000 1.000000 0
1.000000 1.000000 0
1.000000 1.000000 0
1.000000 1.000000 0
1.000000 1.000000 0
1.000000 1.000000 0
1.000000 1.000000 0
1.000000 1.000000 0
1.000000 1.000000 0
1.000000 1.000000 0
1.000000 1.000000 0
1.000000 1.000000 0
1.000000 1.000000 0
1.000000 1.000000 0
1.000000 1.000000 0
1.000000 1.000000 0
1.000000 1.000000 0
1.000000 1.000000 0
1.000000 1.000000 0
1.000000 1.000000 0
1.000000 1.000000 0
1.000000 1.000000 0
1.000000 1.000000 0
1.000000 1.000000 0
1.000000 1.000000 0
1.000000 1.000000 0
1.000000 1.000000 0
1.000000 1.000000 0
1.000000 1.000000 0
1.000000 1.000000 0
1.000000 1.000000 0
1.000000 1.000000 0
1.000000 1.000000 0
1.000000 1.000000 0
1.000000 1.000000 0
1.000000 1.000000 0
1.000000 1.000000 0
1.000000 1.000000 0
1.000000 1.000000 0
1.000000 1.000000 0
1.000000 1.000000 0
1.000000 1.000000 0
1.000000 1.000000 0
1.000000 1.000000 0
1.000000 1.000000 0
1.000000 1.000000 0
1.000000 1.000000 0
1.000000 1.000000 0
1.000000 1.000000 0
1.000000 1.000000 0
1.000000 1.000000 0
1.000000 1.000000 0
1.000000 1.000000 0
1.000000 1.000000 0
1.000000 1.000000 0
1.000000 1.000000 0
1.000000 1.000000 0
1.000000 1.000000 0
1.000000 1.000000 0
1.000000 1.000000 0
1.000000 1.000000 0
1.000000 1.000000 0
1.000000 1.000000 0
1.000000 1.000000 0
1.000000 1.000000 0
1.000000 1.000000 0
1.000000 1.000000 0
1.000000 1.000000 0
1.000000 1.000000 0
1.000000 1.000000 0
1.000000 1.000000 0
1.000000 1.000000 0
1.000000 1.000000 0
1.000000 1.000000 0
1.000000 1.000000 0
1.000000 1.000000 0
1.000000 1.000000 0
1.000000 1.000000 0
1.000000 1.000000 0
1.000000 1.000000 0
1.000000 1.000000 0
1.000000 1.000000 0
1.000000 1.000000 0
1.000000 1.000000 0
1.000000 1.000000 0
1.000000 1.000000 0
1.000000 1.000000 0
1.000000 1.000000 0
1.000000 1.000000 0
1.000000 1.000000 0
1.000000 1.000000 0
1.000000 1.000000 0
1.000000 1.000000 0
1.000000 1.000000 0
1.000000 1.000000 0
1.000000 1.000000 0
1.000000 1.000000 0
1.000000 1.000000 0
1.000000 1.000000 0
1.000000 1.000000 0
1.000000 1.000000 0
1.000000 1.000000 0
1.000000 1.000000 0
1.000000 1.000000 0
1.000000 1.000000 0
1.000000 1.000000 0
1.000000 1.000000 0
1.000000 1.000000 0
1.000000 1.000000 0
1.000000 1.000000 0
1.000000 1.000000 0
1.000000 1.000000 0
1.000000 1.000000 0
1.000000 1.000000 0
1.000000 1.000000 0
1.000000 1.000000 0
1.000000 1.000000 0
1.000000 1.000000 0
1.000000 1.000000 0
1.000000 1.000000 0
1.000000 1.000000 0
1.000000 1.000000 0
1.000000 1.000000 0
1.000000 1.000000 0
1.000000 1.000000 0
1.000000 1.000000 0
1.000000 1.000000 0
1.000000 1.000000 0
1.000000 1.000000 0
1.000000 1.000000 0
1.000000 1.000000 0
1.000000 1.000000 0
1.000000 1.000000 0
1.000000 1.000000 0
1.000000 1.000000 0
1.000000 1.000000 0
1.000000 1.000000 0
1.000000 1.000000 0
1.000000 1.000000 0
1.000000 1.000000 0
1.000000 1.000000 0
1.000000 1.000000 0
1.000000 1.000000 0
1.000000 1.000000 0
1.000000 1.000000 0
1.000000 1.000000 0
1.000000 1.000000 0
1.000000 1.000000 0
1.000000 1.000000 0
1.000000 1.000000 0
1.000000 1.000000 0
1.000000 1.000000 0
1.000000 1.000000 0
1.000000 1.000000 0
1.000000 1.000000 0
1.000000 1.000000 0
1.000000 1.000000 0
1.000000 1.000000 0
1.000000 1.000000 0
1.000000 1.000000 0
1.000000 1.000000 0
1.000000 1.000000 0
1.000000 1.000000 0
1.000000 1.000000 0
1.000000 1.000000 0
1.000000 1.000000 0
1.000000 1.000000 0
1.000000 1.000000 0
1.000000 1.000000 0
1.000000 1.000000 0
1.000000 1.000000 0
1.000000 1.000000 0
1.000000 1.000000 0
1.000000 1.000000 0
1.000000 1.000000 0
1.000000 1.000000 0
1.000000 1.000000 0
1.000000 1.000000 0
1.000000 1.000000 0
1.000000 1.000000 0
1.000000 1.000000 0
1.000000 1.000000 0
1.000000 1.000000 0
1.000000 1.000000 0
1.000000 1.000000 0
1.000000 1.000000 0
1.000000 1.000000 0
1.000000 1.000000 0
1.000000 1.000000 0
1.000000 1.000000 0
1.000000 1.000000 0
1.000000 1.000000 0
1.000000 1.000000 0
1.000000 1.000000 0
1.000000 1.000000 0
1.000000 1.000000 0
1.000000 1.000000 0
1.000000 1.000000 0
1.000000 1.000000 0
1.000000 1.000000 0
1.000000 1.000000 0
1.000000 1.000000 0
1.000000 1.000000 0
1.000000 1.000000 0
1.000000 1.000000 0
1.000000 1.000000 0
1.000000 1.000000 0
1.000000 1.000000 0
1.000000 1.000000 0
1.000000 1.000000 0
1.000000 1.000000 0
1.000000 1.000000 0
1.000000 1.000000 0
1.000000 1.000000 0
1.000000 1.000000 0
1.000000 1.000000 0
1.000000 1.000000 0
1.000000 1.000000 0
1.000000 1.000000 0
1.000000 1.000000 0
1.000000 1.000000 0
1.000000 1.000000 0
1.000000 1.000000 0
1.000000 1.000000 0
1.000000 1.000000 0
1.000000 1.000000 0
1.000000 1.000000 0
1.000000 1.000000 0
1.000000 1.000000 0

CELL_DATA 625 
SCALARS pressure float 1 
LOOKUP_TABLE default 
1.000000
1.000000
1.000000
1.000000
1.000000
1.000000
1.000000
1.000000
1.000000
1.000000
1.000000
1.000000
1.000000
1.000000
1.000000
1.000000
1.000000
1.000000
1.000000
1.000000
1.000000
1.000000
1.000000
1.000000
1.000000
1.000000
1.000000
1.000000
1.000000
1.000000
1.000000
1.000000
1.000000
1.000000
1.000000
1.000000
1.000000
1.000000
1.000000
1.000000
1.000000
1.000000
1.000000
1.000000
1.000000
1.000000
1.000000
1.000000
1.000000
1.000000
1.000000
1.000000
1.000000
1.000000
1.000000
1.000000
1.000000
1.000000
1.000000
1.000000
1.000000
1.000000
1.000000
1.000000
1.000000
1.000000
1.000000
1.000000
1.000000
1.000000
1.000000
1.000000
1.000000
1.000000
1.000000
1.000000
1.000000
1.000000
1.000000
1.000000
1.000000
1.000000
1.000000
1.000000
1.000000
1.000000
1.000000
1.000000
1.000000
1.000000
1.000000
1.000000
1.000000
1.000000
1.000000
1.000000
1.000000
1.000000
1.000000
1.000000
1.000000
1.000000
1.000000
1.000000
1.000000
1.000000
1.000000
1.000000
1.000000
1.000000
1.000000
1.000000
1.000000
1.000000
1.000000
1.000000
1.000000
1.000000
1.000000
1.000000
1.000000
1.000000
1.000000
1.000000
1.000000
1.000000
1.000000
1.000000
1.000000
1.000000
1.000000
1.000000
1.000000
1.000000
1.000000
1.000000
1.000000
1.000000
1.000000
1.000000
1.000000
1.000000
1.000000
1.000000
1.000000
1.000000
1.000000
1.000000
1.000000
1.000000
1.000000
1.000000
1.000000
1.000000
1.000000
1.000000
1.000000
1.000000
1.000000
1.000000
1.000000
1.000000
1.000000
1.000000
1.000000
1.000000
1.000000
1.000000
1.000000
1.000000
1.000000
1.000000
1.000000
1.000000
1.000000
1.000000
1.000000
1.000000
1.000000
1.000000
1.000000
1.000000
1.000000
1.000000
1.000000
1.000000
1.000000
1.000000
1.000000
1.000000
1.000000
1.000000
1.000000
1.000000
1.000000
1.000000
1.000000
1.000000
1.000000
1.000000
1.000000
1.000000
1.000000
1.000000
1.000000
1.000000
1.000000
1.000000
1.000000
1.000000
1.000000
1.000000
1.000000
1.000000
1.000000
1.000000
1.000000
1.000000
1.000000
1.000000
1.000000
1.000000
1.000000
1.000000
1.000000
1.000000
1.000000
1.000000
1.000000
1.000000
1.000000
1.000000
1.000000
1.000000
1.000000
1.000000
1.000000
1.000000
1.000000
1.000000
1.000000
1.000000
1.000000
1.000000
1.000000
1.000000
1.000000
1.000000
1.000000
1.000000
1.000000
1.000000
1.000000
1.000000
1.000000
1.000000
1.000000
1.000000
1.000000
1.000000
1.000000
1.000000
1.000000
1.000000
1.000000
1.000000
1.000000
1.000000
1.000000
1.000000
1.000000
1.000000
1.000000
1.000000
1.000000
1.000000
1.000000
1.000000
1.000000
1.000000
1.000000
1.000000
1.000000
1.000000
1.000000
1.000000
1.000000
1.000000
1.000000
1.000000
1.000000
1.000000
1.000000
1.000000
1.000000
1.000000
1.000000
1.000000
1.000000